 Entering Gaussian System, Link 0=g16
 Initial command:
 /opt/packages/gaussian/g16RevC.01/g16/l1.exe "/ocean/projects/che200051p/zlab/tmp/Gau-29707.inp" -scrdir="/ocean/projects/che200051p/zlab/tmp/"
 Entering Link 1 = /opt/packages/gaussian/g16RevC.01/g16/l1.exe PID=     29708.
  
 Copyright (c) 1988-2019, Gaussian, Inc.  All Rights Reserved.
  
 This is part of the Gaussian(R) 16 program.  It is based on
 the Gaussian(R) 09 system (copyright 2009, Gaussian, Inc.),
 the Gaussian(R) 03 system (copyright 2003, Gaussian, Inc.),
 the Gaussian(R) 98 system (copyright 1998, Gaussian, Inc.),
 the Gaussian(R) 94 system (copyright 1995, Gaussian, Inc.),
 the Gaussian 92(TM) system (copyright 1992, Gaussian, Inc.),
 the Gaussian 90(TM) system (copyright 1990, Gaussian, Inc.),
 the Gaussian 88(TM) system (copyright 1988, Gaussian, Inc.),
 the Gaussian 86(TM) system (copyright 1986, Carnegie Mellon
 University), and the Gaussian 82(TM) system (copyright 1983,
 Carnegie Mellon University). Gaussian is a federally registered
 trademark of Gaussian, Inc.
  
 This software contains proprietary and confidential information,
 including trade secrets, belonging to Gaussian, Inc.
  
 This software is provided under written license and may be
 used, copied, transmitted, or stored only in accord with that
 written license.
  
 The following legend is applicable only to US Government
 contracts under FAR:
  
                    RESTRICTED RIGHTS LEGEND
  
 Use, reproduction and disclosure by the US Government is
 subject to restrictions as set forth in subparagraphs (a)
 and (c) of the Commercial Computer Software - Restricted
 Rights clause in FAR 52.227-19.
  
 Gaussian, Inc.
 340 Quinnipiac St., Bldg. 40, Wallingford CT 06492
  
  
 ---------------------------------------------------------------
 Warning -- This program may not be used in any manner that
 competes with the business of Gaussian, Inc. or will provide
 assistance to any competitor of Gaussian, Inc.  The licensee
 of this program is prohibited from giving any competitor of
 Gaussian, Inc. access to this program.  By using this program,
 the user acknowledges that Gaussian, Inc. is engaged in the
 business of creating and licensing software in the field of
 computational chemistry and represents and warrants to the
 licensee that it is not a competitor of Gaussian, Inc. and that
 it will not use this program in any manner prohibited above.
 ---------------------------------------------------------------
  

 Cite this work as:
 Gaussian 16, Revision C.01,
 M. J. Frisch, G. W. Trucks, H. B. Schlegel, G. E. Scuseria, 
 M. A. Robb, J. R. Cheeseman, G. Scalmani, V. Barone, 
 G. A. Petersson, H. Nakatsuji, X. Li, M. Caricato, A. V. Marenich, 
 J. Bloino, B. G. Janesko, R. Gomperts, B. Mennucci, H. P. Hratchian, 
 J. V. Ortiz, A. F. Izmaylov, J. L. Sonnenberg, D. Williams-Young, 
 F. Ding, F. Lipparini, F. Egidi, J. Goings, B. Peng, A. Petrone, 
 T. Henderson, D. Ranasinghe, V. G. Zakrzewski, J. Gao, N. Rega, 
 G. Zheng, W. Liang, M. Hada, M. Ehara, K. Toyota, R. Fukuda, 
 J. Hasegawa, M. Ishida, T. Nakajima, Y. Honda, O. Kitao, H. Nakai, 
 T. Vreven, K. Throssell, J. A. Montgomery, Jr., J. E. Peralta, 
 F. Ogliaro, M. J. Bearpark, J. J. Heyd, E. N. Brothers, K. N. Kudin, 
 V. N. Staroverov, T. A. Keith, R. Kobayashi, J. Normand, 
 K. Raghavachari, A. P. Rendell, J. C. Burant, S. S. Iyengar, 
 J. Tomasi, M. Cossi, J. M. Millam, M. Klene, C. Adamo, R. Cammi, 
 J. W. Ochterski, R. L. Martin, K. Morokuma, O. Farkas, 
 J. B. Foresman, and D. J. Fox, Gaussian, Inc., Wallingford CT, 2019.
 
 ******************************************
 Gaussian 16:  ES64L-G16RevC.01  3-Jul-2019
                 9-May-2025 
 ******************************************
 %NProcShared=16
 Will use up to   16 processors via shared memory.
 %Chk=sto_lr_adduct_SBn.chk
 -----------------------------
 #n B3LYP/6-31+G(d,p) Opt Freq
 -----------------------------
 1/18=20,19=15,26=3,38=1/1,3;
 2/9=110,12=2,17=6,18=5,40=1/2;
 3/5=1,6=6,7=111,11=2,25=1,30=1,71=1,74=-5/1,2,3;
 4//1;
 5/5=2,38=5/2;
 6/7=2,8=2,9=2,10=2,28=1/1;
 7//1,2,3,16;
 1/18=20,19=15,26=3/3(2);
 2/9=110/2;
 99//99;
 2/9=110/2;
 3/5=1,6=6,7=111,11=2,25=1,30=1,71=1,74=-5/1,2,3;
 4/5=5,16=3,69=1/1;
 5/5=2,38=5/2;
 7//1,2,3,16;
 1/18=20,19=15,26=3/3(-5);
 2/9=110/2;
 6/7=2,8=2,9=2,10=2,19=2,28=1/1;
 99/9=1/99;
 ------------------------
 sto LR adduct S benzylic
 ------------------------
 Symbolic Z-matrix:
 Charge =  0 Multiplicity = 1
 C
 C                    1     1.38835 
 C                    2     1.39536  1     119.96694 
 C                    3     1.40717  2     121.49587  1     359.5435  0
 C                    4     1.40444  3     117.58906  2     1.79371  0
 C                    1     1.39265  2     119.6775  3     359.14561  0
 H                    1     1.08643  2     119.85829  3     179.45103  0
 H                    6     1.08684  1     119.60837  2     180.47814  0
 H                    3     1.08636  2     116.47547  1     180.37157  0
 H                    2     1.08742  1     120.39068  3     180.26673  0
 H                    5     1.08823  4     120.4747  3     179.04952  0
 C                    4     1.52168  3     122.90414  2     184.07738  0
 C                    12    1.54319  4     113.82628  3     26.30021  0
 O                    13    1.43829  12    109.89533  4     286.31406  0
 H                    13    1.09726  12    110.82297  4     166.49978  0
 H                    13    1.09443  12    111.75328  4     46.92124  0
 S                    14    2.96225  13    141.08918  12    342.51223  0
 H                    14    2.76647  13    134.03424  12    221.55368  0
 P                    14    1.64827  13    111.96231  12    310.91768  0
 C                    18    1.0899   14    89.37992  13    44.1499  0
 S                    12    1.83623  4     112.96764  3     267.14229  0
 C                    20    1.40968  18    119.67484  14    35.14463  0
 H                    20    2.1307   18    92.15019  14    217.41367  0
 C                    23    1.08545  20    35.12949  18    178.54106  0
 H                    23    2.28716  20    145.0614  18    176.88714  0
 C                    22    1.39586  20    118.48179  18    178.47759  0
 C                    24    1.38891  23    122.14554  20    181.44602  0
 H                    26    1.08758  22    121.2389  20    181.92488  0
 C                    27    1.39951  24    119.45899  23    183.28216  0
 C                    25    1.09487  23    93.10607  20    321.56147  0
 O                    27    1.36868  24    124.4722  23    3.42779  0
 H                    30    1.09697  25    110.78775  23    302.19667  0
 H                    30    1.09371  25    107.88777  23    184.79216  0
 H                    29    1.08736  27    119.33246  24    177.60532  0
 H                    12    1.09664  4     108.49327  3     146.89133  0
 

 GradGradGradGradGradGradGradGradGradGradGradGradGradGradGradGradGradGrad
 Berny optimization.
 Initialization pass.
                           ----------------------------
                           !    Initial Parameters    !
                           ! (Angstroms and Degrees)  !
 --------------------------                            --------------------------
 ! Name  Definition              Value          Derivative Info.                !
 --------------------------------------------------------------------------------
 ! R1    R(1,2)                  1.3884         estimate D2E/DX2                !
 ! R2    R(1,6)                  1.3927         estimate D2E/DX2                !
 ! R3    R(1,7)                  1.0864         estimate D2E/DX2                !
 ! R4    R(2,3)                  1.3954         estimate D2E/DX2                !
 ! R5    R(2,10)                 1.0874         estimate D2E/DX2                !
 ! R6    R(3,4)                  1.4072         estimate D2E/DX2                !
 ! R7    R(3,9)                  1.0864         estimate D2E/DX2                !
 ! R8    R(4,5)                  1.4044         estimate D2E/DX2                !
 ! R9    R(4,12)                 1.5217         estimate D2E/DX2                !
 ! R10   R(5,6)                  1.3993         estimate D2E/DX2                !
 ! R11   R(5,11)                 1.0882         estimate D2E/DX2                !
 ! R12   R(6,8)                  1.0868         estimate D2E/DX2                !
 ! R13   R(12,13)                1.5432         estimate D2E/DX2                !
 ! R14   R(12,21)                1.8362         estimate D2E/DX2                !
 ! R15   R(12,35)                1.0966         estimate D2E/DX2                !
 ! R16   R(13,14)                1.4383         estimate D2E/DX2                !
 ! R17   R(13,15)                1.0973         estimate D2E/DX2                !
 ! R18   R(13,16)                1.0944         estimate D2E/DX2                !
 ! R19   R(14,19)                1.6483         estimate D2E/DX2                !
 ! R20   R(17,19)                1.9505         estimate D2E/DX2                !
 ! R21   R(18,20)                1.0899         estimate D2E/DX2                !
 ! R22   R(19,21)                2.1079         estimate D2E/DX2                !
 ! R23   R(19,22)                1.7961         estimate D2E/DX2                !
 ! R24   R(20,22)                1.4097         estimate D2E/DX2                !
 ! R25   R(20,24)                1.3911         estimate D2E/DX2                !
 ! R26   R(22,26)                1.3959         estimate D2E/DX2                !
 ! R27   R(23,24)                1.0855         estimate D2E/DX2                !
 ! R28   R(24,27)                1.3889         estimate D2E/DX2                !
 ! R29   R(25,30)                1.0949         estimate D2E/DX2                !
 ! R30   R(26,28)                1.0876         estimate D2E/DX2                !
 ! R31   R(26,29)                1.4021         estimate D2E/DX2                !
 ! R32   R(27,29)                1.3995         estimate D2E/DX2                !
 ! R33   R(27,31)                1.3687         estimate D2E/DX2                !
 ! R34   R(29,34)                1.0874         estimate D2E/DX2                !
 ! R35   R(30,31)                1.4274         estimate D2E/DX2                !
 ! R36   R(30,32)                1.097          estimate D2E/DX2                !
 ! R37   R(30,33)                1.0937         estimate D2E/DX2                !
 ! A1    A(2,1,6)              119.6775         estimate D2E/DX2                !
 ! A2    A(2,1,7)              119.8583         estimate D2E/DX2                !
 ! A3    A(6,1,7)              120.4635         estimate D2E/DX2                !
 ! A4    A(1,2,3)              119.9669         estimate D2E/DX2                !
 ! A5    A(1,2,10)             120.3907         estimate D2E/DX2                !
 ! A6    A(3,2,10)             119.6418         estimate D2E/DX2                !
 ! A7    A(2,3,4)              121.4959         estimate D2E/DX2                !
 ! A8    A(2,3,9)              116.4755         estimate D2E/DX2                !
 ! A9    A(4,3,9)              122.0233         estimate D2E/DX2                !
 ! A10   A(3,4,5)              117.5891         estimate D2E/DX2                !
 ! A11   A(3,4,12)             122.9041         estimate D2E/DX2                !
 ! A12   A(5,4,12)             119.4679         estimate D2E/DX2                !
 ! A13   A(4,5,6)              120.8769         estimate D2E/DX2                !
 ! A14   A(4,5,11)             120.4747         estimate D2E/DX2                !
 ! A15   A(6,5,11)             118.6422         estimate D2E/DX2                !
 ! A16   A(1,6,5)              120.3627         estimate D2E/DX2                !
 ! A17   A(1,6,8)              119.6084         estimate D2E/DX2                !
 ! A18   A(5,6,8)              120.0283         estimate D2E/DX2                !
 ! A19   A(4,12,13)            113.8263         estimate D2E/DX2                !
 ! A20   A(4,12,21)            112.9676         estimate D2E/DX2                !
 ! A21   A(4,12,35)            108.4933         estimate D2E/DX2                !
 ! A22   A(13,12,21)           104.6392         estimate D2E/DX2                !
 ! A23   A(13,12,35)           108.2619         estimate D2E/DX2                !
 ! A24   A(21,12,35)           108.4288         estimate D2E/DX2                !
 ! A25   A(12,13,14)           109.8953         estimate D2E/DX2                !
 ! A26   A(12,13,15)           110.823          estimate D2E/DX2                !
 ! A27   A(12,13,16)           111.7533         estimate D2E/DX2                !
 ! A28   A(14,13,15)           108.4217         estimate D2E/DX2                !
 ! A29   A(14,13,16)           108.5751         estimate D2E/DX2                !
 ! A30   A(15,13,16)           107.264          estimate D2E/DX2                !
 ! A31   A(13,14,19)           111.9623         estimate D2E/DX2                !
 ! A32   A(14,19,17)           110.5164         estimate D2E/DX2                !
 ! A33   A(14,19,21)            98.0835         estimate D2E/DX2                !
 ! A34   A(14,19,22)            97.3641         estimate D2E/DX2                !
 ! A35   A(17,19,21)           118.3527         estimate D2E/DX2                !
 ! A36   A(17,19,22)           118.3925         estimate D2E/DX2                !
 ! A37   A(21,19,22)           109.99           estimate D2E/DX2                !
 ! A38   A(18,20,22)           119.6748         estimate D2E/DX2                !
 ! A39   A(18,20,24)           118.8205         estimate D2E/DX2                !
 ! A40   A(22,20,24)           121.4338         estimate D2E/DX2                !
 ! A41   A(12,21,19)            92.7954         estimate D2E/DX2                !
 ! A42   A(19,22,20)           115.8223         estimate D2E/DX2                !
 ! A43   A(19,22,26)           125.4593         estimate D2E/DX2                !
 ! A44   A(20,22,26)           118.4818         estimate D2E/DX2                !
 ! A45   A(20,24,23)           118.1907         estimate D2E/DX2                !
 ! A46   A(20,24,27)           119.6481         estimate D2E/DX2                !
 ! A47   A(23,24,27)           122.1455         estimate D2E/DX2                !
 ! A48   A(22,26,28)           121.2389         estimate D2E/DX2                !
 ! A49   A(22,26,29)           119.825          estimate D2E/DX2                !
 ! A50   A(28,26,29)           118.8892         estimate D2E/DX2                !
 ! A51   A(24,27,29)           119.459          estimate D2E/DX2                !
 ! A52   A(24,27,31)           124.4722         estimate D2E/DX2                !
 ! A53   A(29,27,31)           116.0687         estimate D2E/DX2                !
 ! A54   A(26,29,27)           120.8176         estimate D2E/DX2                !
 ! A55   A(26,29,34)           119.8025         estimate D2E/DX2                !
 ! A56   A(27,29,34)           119.3325         estimate D2E/DX2                !
 ! A57   A(25,30,31)           110.7172         estimate D2E/DX2                !
 ! A58   A(25,30,32)           110.7877         estimate D2E/DX2                !
 ! A59   A(25,30,33)           107.8878         estimate D2E/DX2                !
 ! A60   A(31,30,32)           111.7324         estimate D2E/DX2                !
 ! A61   A(31,30,33)           108.057          estimate D2E/DX2                !
 ! A62   A(32,30,33)           107.4873         estimate D2E/DX2                !
 ! A63   A(27,31,30)           114.9583         estimate D2E/DX2                !
 ! D1    D(6,1,2,3)             -0.8544         estimate D2E/DX2                !
 ! D2    D(6,1,2,10)           179.4123         estimate D2E/DX2                !
 ! D3    D(7,1,2,3)            179.451          estimate D2E/DX2                !
 ! D4    D(7,1,2,10)            -0.2822         estimate D2E/DX2                !
 ! D5    D(2,1,6,5)              0.7744         estimate D2E/DX2                !
 ! D6    D(2,1,6,8)           -179.5219         estimate D2E/DX2                !
 ! D7    D(7,1,6,5)           -179.5329         estimate D2E/DX2                !
 ! D8    D(7,1,6,8)              0.1708         estimate D2E/DX2                !
 ! D9    D(1,2,3,4)             -0.4565         estimate D2E/DX2                !
 ! D10   D(1,2,3,9)           -179.6284         estimate D2E/DX2                !
 ! D11   D(10,2,3,4)           179.2788         estimate D2E/DX2                !
 ! D12   D(10,2,3,9)             0.1068         estimate D2E/DX2                !
 ! D13   D(2,3,4,5)              1.7937         estimate D2E/DX2                !
 ! D14   D(2,3,4,12)          -175.9226         estimate D2E/DX2                !
 ! D15   D(9,3,4,5)           -179.0806         estimate D2E/DX2                !
 ! D16   D(9,3,4,12)             3.2031         estimate D2E/DX2                !
 ! D17   D(3,4,5,6)             -1.8659         estimate D2E/DX2                !
 ! D18   D(3,4,5,11)           179.0495         estimate D2E/DX2                !
 ! D19   D(12,4,5,6)           175.9319         estimate D2E/DX2                !
 ! D20   D(12,4,5,11)           -3.1527         estimate D2E/DX2                !
 ! D21   D(3,4,12,13)           26.3002         estimate D2E/DX2                !
 ! D22   D(3,4,12,21)          -92.8577         estimate D2E/DX2                !
 ! D23   D(3,4,12,35)          146.8913         estimate D2E/DX2                !
 ! D24   D(5,4,12,13)         -151.375          estimate D2E/DX2                !
 ! D25   D(5,4,12,21)           89.4671         estimate D2E/DX2                !
 ! D26   D(5,4,12,35)          -30.7839         estimate D2E/DX2                !
 ! D27   D(4,5,6,1)              0.6209         estimate D2E/DX2                !
 ! D28   D(4,5,6,8)           -179.0816         estimate D2E/DX2                !
 ! D29   D(11,5,6,1)           179.7219         estimate D2E/DX2                !
 ! D30   D(11,5,6,8)             0.0194         estimate D2E/DX2                !
 ! D31   D(4,12,13,14)         -73.6859         estimate D2E/DX2                !
 ! D32   D(4,12,13,15)         166.4998         estimate D2E/DX2                !
 ! D33   D(4,12,13,16)          46.9212         estimate D2E/DX2                !
 ! D34   D(21,12,13,14)         50.1094         estimate D2E/DX2                !
 ! D35   D(21,12,13,15)        -69.7048         estimate D2E/DX2                !
 ! D36   D(21,12,13,16)        170.7166         estimate D2E/DX2                !
 ! D37   D(35,12,13,14)        165.5933         estimate D2E/DX2                !
 ! D38   D(35,12,13,15)         45.779          estimate D2E/DX2                !
 ! D39   D(35,12,13,16)        -73.7996         estimate D2E/DX2                !
 ! D40   D(4,12,21,19)          95.8927         estimate D2E/DX2                !
 ! D41   D(13,12,21,19)        -28.4521         estimate D2E/DX2                !
 ! D42   D(35,12,21,19)       -143.8195         estimate D2E/DX2                !
 ! D43   D(12,13,14,19)        -49.0823         estimate D2E/DX2                !
 ! D44   D(15,13,14,19)         72.1832         estimate D2E/DX2                !
 ! D45   D(16,13,14,19)       -171.59           estimate D2E/DX2                !
 ! D46   D(13,14,19,17)        147.751          estimate D2E/DX2                !
 ! D47   D(13,14,19,21)         23.3282         estimate D2E/DX2                !
 ! D48   D(13,14,19,22)        -88.1727         estimate D2E/DX2                !
 ! D49   D(14,19,21,12)          4.5354         estimate D2E/DX2                !
 ! D50   D(17,19,21,12)       -114.0774         estimate D2E/DX2                !
 ! D51   D(22,19,21,12)        105.4546         estimate D2E/DX2                !
 ! D52   D(14,19,22,20)        -55.0251         estimate D2E/DX2                !
 ! D53   D(14,19,22,26)        119.2756         estimate D2E/DX2                !
 ! D54   D(17,19,22,20)         63.1111         estimate D2E/DX2                !
 ! D55   D(17,19,22,26)       -122.5882         estimate D2E/DX2                !
 ! D56   D(21,19,22,20)       -156.4386         estimate D2E/DX2                !
 ! D57   D(21,19,22,26)         17.862          estimate D2E/DX2                !
 ! D58   D(18,20,22,19)         -6.8027         estimate D2E/DX2                !
 ! D59   D(18,20,22,26)        178.4776         estimate D2E/DX2                !
 ! D60   D(24,20,22,19)        170.0996         estimate D2E/DX2                !
 ! D61   D(24,20,22,26)         -4.6201         estimate D2E/DX2                !
 ! D62   D(18,20,24,23)         -1.6641         estimate D2E/DX2                !
 ! D63   D(18,20,24,27)        176.9271         estimate D2E/DX2                !
 ! D64   D(22,20,24,23)       -178.5922         estimate D2E/DX2                !
 ! D65   D(22,20,24,27)         -0.001          estimate D2E/DX2                !
 ! D66   D(19,22,26,28)          7.7621         estimate D2E/DX2                !
 ! D67   D(19,22,26,29)       -169.719          estimate D2E/DX2                !
 ! D68   D(20,22,26,28)       -178.0751         estimate D2E/DX2                !
 ! D69   D(20,22,26,29)          4.4439         estimate D2E/DX2                !
 ! D70   D(20,24,27,29)          4.7487         estimate D2E/DX2                !
 ! D71   D(20,24,27,31)       -175.1057         estimate D2E/DX2                !
 ! D72   D(23,24,27,29)       -176.7178         estimate D2E/DX2                !
 ! D73   D(23,24,27,31)          3.4278         estimate D2E/DX2                !
 ! D74   D(22,26,29,27)          0.2291         estimate D2E/DX2                !
 ! D75   D(22,26,29,34)        177.7057         estimate D2E/DX2                !
 ! D76   D(28,26,29,27)       -177.311          estimate D2E/DX2                !
 ! D77   D(28,26,29,34)          0.1656         estimate D2E/DX2                !
 ! D78   D(24,27,29,26)         -4.9064         estimate D2E/DX2                !
 ! D79   D(24,27,29,34)        177.6053         estimate D2E/DX2                !
 ! D80   D(31,27,29,26)        174.96           estimate D2E/DX2                !
 ! D81   D(31,27,29,34)         -2.5283         estimate D2E/DX2                !
 ! D82   D(24,27,31,30)         24.6414         estimate D2E/DX2                !
 ! D83   D(29,27,31,30)       -155.2175         estimate D2E/DX2                !
 ! D84   D(25,30,31,27)        -76.8235         estimate D2E/DX2                !
 ! D85   D(32,30,31,27)         47.1792         estimate D2E/DX2                !
 ! D86   D(33,30,31,27)        165.2264         estimate D2E/DX2                !
 --------------------------------------------------------------------------------
 Trust Radius=3.00D-01 FncErr=1.00D-07 GrdErr=1.00D-06 EigMax=2.50D+02 EigMin=1.00D-04
 Number of steps in this run=    196 maximum allowed number of steps=    210.
 GradGradGradGradGradGradGradGradGradGradGradGradGradGradGradGradGradGrad

                          Input orientation:                          
 ---------------------------------------------------------------------
 Center     Atomic      Atomic             Coordinates (Angstroms)
 Number     Number       Type             X           Y           Z
 ---------------------------------------------------------------------
      1          6           0        0.000000    0.000000    0.000000
      2          6           0        0.000000    0.000000    1.388350
      3          6           0        1.208820    0.000000    2.085333
      4          6           0        2.445010   -0.009560    1.413120
      5          6           0        2.422197    0.019803    0.009172
      6          6           0        1.209836    0.018042   -0.689525
      7          1           0       -0.942173   -0.009028   -0.540886
      8          1           0        1.208424    0.025908   -1.776336
      9          1           0        1.142671   -0.006306    3.169658
     10          1           0       -0.937994   -0.004367    1.938469
     11          1           0        3.351001    0.029461   -0.557816
     12          6           0        3.779637   -0.100708    2.138359
     13          6           0        3.696663   -0.800916    3.511042
     14          8           0        3.065831    0.069110    4.466963
     15          1           0        4.698177   -1.054279    3.880846
     16          1           0        3.124987   -1.732617    3.457214
     17         16           0        2.373904    2.918962    4.884699
     18          1           0        3.551584    0.685519    7.119781
     19         15           0        3.725231    1.579685    4.454788
     20          6           0        4.615443    0.760705    6.895208
     21         16           0        4.512500    1.543691    2.499751
     22          6           0        5.031213    1.270411    5.648399
     23          1           0        5.153275   -0.113402    8.762441
     24          6           0        5.532796    0.289068    7.828533
     25          1           0        6.890008   -0.836738   10.063074
     26          6           0        6.399817    1.385895    5.399383
     27          6           0        6.889660    0.317483    7.533265
     28          1           0        6.769996    1.802098    4.465266
     29          6           0        7.322624    0.911816    6.342493
     30          6           0        7.436337   -1.249110    9.208548
     31          8           0        7.867934   -0.206478    8.334345
     32          1           0        6.829168   -1.995554    8.681755
     33          1           0        8.324483   -1.759265    9.592136
     34          1           0        8.387896    0.967917    6.131778
     35          1           0        4.480325   -0.661626    1.508259
 ---------------------------------------------------------------------
                    Distance matrix (angstroms):
                    1          2          3          4          5
     1  C    0.000000
     2  C    1.388350   0.000000
     3  C    2.410364   1.395360   0.000000
     4  C    2.824017   2.445154   1.407170   0.000000
     5  C    2.422296   2.787394   2.404812   1.404440   0.000000
     6  C    1.392650   2.404495   2.774917   2.438756   1.399286
     7  H    1.086430   2.147027   3.394684   3.910390   3.409162
     8  H    2.148564   3.387654   3.861756   3.420969   2.159010
     9  H    3.369343   2.116317   1.086360   2.186670   3.409772
    10  H    2.153488   1.087420   2.151836   3.423555   3.874746
    11  H    3.397239   3.875260   3.402358   2.169546   1.088230
    12  C    4.343774   3.854648   2.573335   1.521680   2.527964
    13  C    5.160833   4.337350   2.977159   2.567910   3.815880
    14  O    5.418289   4.345337   3.020833   3.117301   4.504287
    15  H    6.184282   5.421892   4.063372   3.501125   4.617748
    16  H    4.971905   4.128887   2.925016   2.758554   3.931143
    17  S    6.165716   5.136168   4.208826   4.542374   5.672585
    18  H    7.985923   6.777387   5.595011   5.854368   7.230453
    19  P    6.018130   5.076987   3.800270   3.662842   4.888214
    20  C    8.332160   7.225405   5.942950   5.946208   7.264762
    21  S    5.384644   4.897025   3.670017   2.804973   3.590903
    22  C    7.670167   6.713797   5.377739   5.124877   6.338128
    23  H   10.166094   8.997017   7.755989   7.833135   9.170400
    24  C    9.590689   8.495372   7.194768   7.126088   8.419664
    25  H   12.224475  11.109598   9.829567   9.760325  11.035213
    26  C    8.487149   7.678981   6.312693   5.786026   6.836815
    27  C   10.213632   9.237326   7.877354   7.570869   8.755502
    28  H    8.307768   7.651654   6.311761   5.594927   6.475855
    29  C    9.730336   8.887956   7.505560   6.995626   8.057346
    30  C   11.901963  10.863465   9.543712   9.339086  10.553684
    31  O   11.463347  10.497327   9.134363   8.794899   9.950666
    32  H   11.224644  10.188892   8.892881   8.717688   9.934624
    33  H   12.821899  11.819227  10.491891  10.223795  11.394528
    34  H   10.435151   9.684719   8.297573   7.651085   8.600860
    35  H    4.773459   4.530501   3.387258   2.139335   2.635811
                    6          7          8          9         10
     6  C    0.000000
     7  H    2.157306   0.000000
     8  H    1.086840   2.480448   0.000000
     9  H    3.859845   4.256140   4.946536   0.000000
    10  H    3.394117   2.479363   4.290431   2.417643   0.000000
    11  H    2.145242   4.293380   2.464841   4.332674   4.962666
    12  C    3.822945   5.429756   4.685297   2.833034   4.722846
    13  C    4.949724   6.209993   5.901808   2.696446   4.958580
    14  O    5.480575   6.414730   6.513878   2.321041   4.735958
    15  H    5.848649   7.242777   6.734159   3.774343   6.053228
    16  H    4.891632   5.957966   5.844285   2.644318   4.669181
    17  S    6.390804   7.000462   7.355100   3.607561   5.309877
    18  H    8.180132   8.908539   9.223144   4.678135   6.890446
    19  P    5.935478   7.018934   6.897496   3.291891   5.530529
    20  C    8.347328   9.315315   9.345769   5.150551   7.482998
    21  S    4.838045   6.435050   5.612977   3.769220   5.693804
    22  C    7.506040   8.696296   8.443293   4.784864   7.142834
    23  H   10.242444  11.122827  11.253758   6.882996   9.147789
    24  C    9.556085  10.585899  10.536743   6.408241   8.755003
    25  H   12.190709  13.208790  13.160402   9.013361  11.312810
    26  C    8.116756   9.546593   8.960529   5.877711   8.231296
    27  C    9.998217  11.253272  10.910093   7.223142   9.626915
    28  H    7.789102   9.371195   8.546551   6.051092   8.310302
    29  C    9.360250  10.795172  10.202140   7.007257   9.405989
    30  C   11.762093  12.914670  12.691739   8.810390  11.159429
    31  O   11.216547  12.507066  12.109044   8.481935  10.885424
    32  H   11.110912  12.222812  12.043701   8.165572  10.476905
    33  H   12.628919  13.842413  13.530237   9.792830  12.142972
    34  H    9.947713  11.512127  10.722429   7.887747  10.271388
    35  H    3.998538   5.833384   4.686855   3.785450   5.474966
                   11         12         13         14         15
    11  H    0.000000
    12  C    2.733136   0.000000
    13  C    4.167087   1.543190   0.000000
    14  O    5.033021   2.441466   1.438290   0.000000
    15  H    4.763517   2.188441   1.097260   2.066420   0.000000
    16  H    4.390497   2.197970   1.094430   2.066231   1.764804
    17  S    6.238983   4.317046   4.180206   2.962250   4.711328
    18  H    7.708186   5.048240   3.905576   2.766470   3.851268
    19  P    5.260175   2.862259   2.561002   1.648270   2.865972
    20  C    7.594807   4.905937   3.838671   2.962427   3.519572
    21  S    3.604260   1.836230   2.680574   2.852571   2.948109
    22  C    6.548296   3.970742   3.261857   2.588753   2.939275
    23  H    9.493987   6.765021   5.492866   4.779316   4.992226
    24  C    8.669399   5.966873   4.816656   4.175458   4.252693
    25  H   11.228453   8.545013   7.288885   6.838227   6.562879
    26  C    6.828134   4.439551   3.956642   3.703889   3.340057
    27  C    8.835760   6.241165   5.255884   4.907705   4.474873
    28  H    6.329544   4.239978   4.139034   4.089510   3.576712
    29  C    8.010406   5.590412   4.908988   4.727373   4.100360
    30  C   10.663328   8.042254   6.829905   6.581919   5.993320
    31  O    9.976416   7.423989   6.404460   6.171936   5.531706
    32  H   10.078095   7.463653   6.162469   6.015814   5.336276
    33  H   11.443627   8.886238   7.701614   7.567283   6.801906
    34  H    8.426250   6.190752   5.657270   5.648349   4.771792
    35  H    2.453903   1.096640   2.155150   3.359866   2.414707
                   16         17         18         19         20
    16  H    0.000000
    17  S    4.923315   0.000000
    18  H    4.409508   3.372060   0.000000
    19  P    3.510953   1.950532   2.816358   0.000000
    20  C    4.500879   3.704689   1.089900   2.723758   0.000000
    21  S    3.684578   3.486107   4.796300   2.107903   4.465838
    22  C    4.177699   3.219045   2.167109   1.796092   1.409680
    23  H    5.906034   5.653054   2.429408   4.843730   2.130700
    24  C    5.384532   5.055799   2.141192   4.039200   1.391069
    25  H    7.656067   7.830456   4.703755   6.878065   4.214361
    26  C    4.921549   4.338569   3.400402   2.843101   2.410881
    27  C    5.915222   5.845909   3.383663   4.591708   2.403253
    28  H    5.176530   4.555100   4.318723   3.052895   3.410457
    29  C    5.739165   5.535669   3.856959   4.117124   2.767157
    30  C    7.204120   7.854726   4.816331   6.661277   4.165133
    31  O    6.972162   7.200889   4.571838   5.950070   3.685818
    32  H    6.409830   7.643264   4.513366   6.346968   3.960971
    33  H    8.041936   8.913763   5.905089   7.661204   5.232652
    34  H    6.491871   6.444369   4.944271   4.992695   3.854499
    35  H    2.604302   5.353315   5.845215   3.778317   5.573196
                   21         22         23         24         25
    21  S    0.000000
    22  C    3.202769   0.000000
    23  H    6.509826   3.409852   0.000000
    24  C    5.568752   2.442868   1.085450   0.000000
    25  H    8.277852   5.233025   2.287160   2.846513   0.000000
    26  C    3.463341   1.395860   3.887405   2.802771   5.189450
    27  C    5.700064   2.813293   2.170614   1.388910   2.780676
    28  H    3.004382   2.169300   4.974800   3.889921   6.189774
    29  C    4.802367   2.420934   3.407829   2.408239   4.133681
    30  C    7.833040   4.980689   2.588670   2.809609   1.094870
    31  O    6.954460   4.176421   2.749782   2.440140   2.083763
    32  H    7.490686   4.806290   2.521433   2.761896   1.804051
    33  H    8.703026   5.964698   3.667944   3.885805   1.769338
    34  H    5.342456   3.404773   4.307250   3.389898   4.577721
    35  H    2.418163   4.601849   7.305927   6.477452   8.889437
                   26         27         28         29         30
    26  C    0.000000
    27  C    2.436166   0.000000
    28  H    1.087580   3.410428   0.000000
    29  C    1.402063   1.399510   2.149879   0.000000
    30  C    4.746300   2.357889   5.679137   3.591212   0.000000
    31  O    3.647605   1.368680   4.495511   2.348494   1.427441
    32  H    4.732072   2.583182   5.674895   3.764100   1.096970
    33  H    5.583507   3.257384   6.433081   4.324185   1.093710
    34  H    2.159529   2.152194   2.467939   1.087360   3.909883
    35  H    4.797670   6.562335   4.478439   5.824449   8.269075
                   31         32         33         34         35
    31  O    0.000000
    32  H    2.097742   0.000000
    33  H    2.049786   1.766520   0.000000
    34  H    2.549680   4.208821   4.406316   0.000000
    35  H    7.634036   7.665212   9.018394   6.269087   0.000000
 Stoichiometry    C15H15O2PS2
 Framework group  C1[X(C15H15O2PS2)]
 Deg. of freedom    99
 Full point group                 C1      NOp   1
 Largest Abelian subgroup         C1      NOp   1
 Largest concise Abelian subgroup C1      NOp   1
                         Standard orientation:                         
 ---------------------------------------------------------------------
 Center     Atomic      Atomic             Coordinates (Angstroms)
 Number     Number       Type             X           Y           Z
 ---------------------------------------------------------------------
      1          6           0        5.727664   -0.113260   -0.903414
      2          6           0        4.631529    0.516081   -1.477813
      3          6           0        3.339664    0.150419   -1.097806
      4          6           0        3.111854   -0.857935   -0.143106
      5          6           0        4.234808   -1.461213    0.446371
      6          6           0        5.530169   -1.095547    0.063841
      7          1           0        6.732550    0.166578   -1.207101
      8          1           0        6.389234   -1.581973    0.518392
      9          1           0        2.524035    0.674891   -1.587557
     10          1           0        4.772558    1.291334   -2.227197
     11          1           0        4.112827   -2.235279    1.201479
     12          6           0        1.718919   -1.344651    0.228846
     13          6           0        0.673907   -1.159012   -0.891388
     14          8           0        0.321280    0.230630   -1.006408
     15          1           0       -0.236862   -1.731002   -0.673889
     16          1           0        1.050949   -1.504264   -1.859075
     17         16           0        0.465393    2.777527    0.499404
     18          1           0       -2.060484    1.584794   -1.389544
     19         15           0       -0.047425    0.896121    0.455773
     20          6           0       -2.534526    0.935031   -0.654035
     21         16           0        1.012528   -0.458859    1.673880
     22          6           0       -1.796362    0.487289    0.460344
     23          1           0       -4.353862    0.874751   -1.761403
     24          6           0       -3.842364    0.515257   -0.874084
     25          1           0       -6.458734   -0.014297   -1.862422
     26          6           0       -2.437359   -0.317570    1.403609
     27          6           0       -4.441152   -0.364055    0.018851
     28          1           0       -1.919727   -0.662411    2.295782
     29          6           0       -3.756311   -0.737669    1.180760
     30          6           0       -6.126380   -0.994389   -1.505068
     31          8           0       -5.682861   -0.914249   -0.150647
     32          1           0       -5.350933   -1.406131   -2.162709
     33          1           0       -6.982939   -1.673482   -1.541684
     34          1           0       -4.242492   -1.395122    1.897514
     35          1           0        1.776811   -2.412595    0.471258
 ---------------------------------------------------------------------
 Rotational constants (GHZ):           0.6659186           0.1291600           0.1245489
 Standard basis: 6-31+G(d,p) (6D, 7F)
 There are   467 symmetry adapted cartesian basis functions of A   symmetry.
 There are   467 symmetry adapted basis functions of A   symmetry.
   467 basis functions,   817 primitive gaussians,   467 cartesian basis functions
    84 alpha electrons       84 beta electrons
       nuclear repulsion energy      1934.1265837445 Hartrees.
 NAtoms=   35 NActive=   35 NUniq=   35 SFac= 1.00D+00 NAtFMM=   60 NAOKFM=F Big=F
 Integral buffers will be    131072 words long.
 Raffenetti 2 integral format.
 Two-electron integral symmetry is turned on.
 One-electron integrals computed using PRISM.
 NBasis=   467 RedAO= T EigKep=  1.57D-06  NBF=   467
 NBsUse=   467 1.00D-06 EigRej= -1.00D+00 NBFU=   467
 ExpMin= 3.48D-02 ExpMax= 2.19D+04 ExpMxC= 3.30D+03 IAcc=3 IRadAn=         5 AccDes= 0.00D+00
 Harris functional with IExCor=  402 and IRadAn=       5 diagonalized for initial guess.
 HarFok:  IExCor=  402 AccDes= 0.00D+00 IRadAn=         5 IDoV= 1 UseB2=F ITyADJ=14
 ICtDFT=  3500011 ScaDFX=  1.000000  1.000000  1.000000  1.000000
 FoFCou: FMM=F IPFlag=           0 FMFlag=      100000 FMFlg1=           0
         NFxFlg=           0 DoJE=T BraDBF=F KetDBF=T FulRan=T
         wScrn=  0.000000 ICntrl=       500 IOpCl=  0 I1Cent=   200000004 NGrid=           0
         NMat0=    1 NMatS0=      1 NMatT0=    0 NMatD0=    1 NMtDS0=    0 NMtDT0=    0
 Petite list used in FoFCou.
 Requested convergence on RMS density matrix=1.00D-08 within 128 cycles.
 Requested convergence on MAX density matrix=1.00D-06.
 Requested convergence on             energy=1.00D-06.
 No special actions if energy rises.
 SCF Done:  E(RB3LYP) =  -1868.87945433     A.U. after   17 cycles
            NFock= 17  Conv=0.28D-08     -V/T= 2.0058

 **********************************************************************

            Population analysis using the SCF Density.

 **********************************************************************

 Orbital symmetries:
       Occupied  (A) (A) (A) (A) (A) (A) (A) (A) (A) (A) (A) (A)
                 (A) (A) (A) (A) (A) (A) (A) (A) (A) (A) (A) (A)
                 (A) (A) (A) (A) (A) (A) (A) (A) (A) (A) (A) (A)
                 (A) (A) (A) (A) (A) (A) (A) (A) (A) (A) (A) (A)
                 (A) (A) (A) (A) (A) (A) (A) (A) (A) (A) (A) (A)
                 (A) (A) (A) (A) (A) (A) (A) (A) (A) (A) (A) (A)
                 (A) (A) (A) (A) (A) (A) (A) (A) (A) (A) (A) (A)
       Virtual   (A) (A) (A) (A) (A) (A) (A) (A) (A) (A) (A) (A)
                 (A) (A) (A) (A) (A) (A) (A) (A) (A) (A) (A) (A)
                 (A) (A) (A) (A) (A) (A) (A) (A) (A) (A) (A) (A)
                 (A) (A) (A) (A) (A) (A) (A) (A) (A) (A) (A) (A)
                 (A) (A) (A) (A) (A) (A) (A) (A) (A) (A) (A) (A)
                 (A) (A) (A) (A) (A) (A) (A) (A) (A) (A) (A) (A)
                 (A) (A) (A) (A) (A) (A) (A) (A) (A) (A) (A) (A)
                 (A) (A) (A) (A) (A) (A) (A) (A) (A) (A) (A) (A)
                 (A) (A) (A) (A) (A) (A) (A) (A) (A) (A) (A) (A)
                 (A) (A) (A) (A) (A) (A) (A) (A) (A) (A) (A) (A)
                 (A) (A) (A) (A) (A) (A) (A) (A) (A) (A) (A) (A)
                 (A) (A) (A) (A) (A) (A) (A) (A) (A) (A) (A) (A)
                 (A) (A) (A) (A) (A) (A) (A) (A) (A) (A) (A) (A)
                 (A) (A) (A) (A) (A) (A) (A) (A) (A) (A) (A) (A)
                 (A) (A) (A) (A) (A) (A) (A) (A) (A) (A) (A) (A)
                 (A) (A) (A) (A) (A) (A) (A) (A) (A) (A) (A) (A)
                 (A) (A) (A) (A) (A) (A) (A) (A) (A) (A) (A) (A)
                 (A) (A) (A) (A) (A) (A) (A) (A) (A) (A) (A) (A)
                 (A) (A) (A) (A) (A) (A) (A) (A) (A) (A) (A) (A)
                 (A) (A) (A) (A) (A) (A) (A) (A) (A) (A) (A) (A)
                 (A) (A) (A) (A) (A) (A) (A) (A) (A) (A) (A) (A)
                 (A) (A) (A) (A) (A) (A) (A) (A) (A) (A) (A) (A)
                 (A) (A) (A) (A) (A) (A) (A) (A) (A) (A) (A) (A)
                 (A) (A) (A) (A) (A) (A) (A) (A) (A) (A) (A) (A)
                 (A) (A) (A) (A) (A) (A) (A) (A) (A) (A) (A) (A)
                 (A) (A) (A) (A) (A) (A) (A) (A) (A) (A) (A) (A)
                 (A) (A) (A) (A) (A) (A) (A) (A) (A) (A) (A) (A)
                 (A) (A) (A) (A) (A) (A) (A) (A) (A) (A) (A) (A)
                 (A) (A) (A) (A) (A) (A) (A) (A) (A) (A) (A) (A)
                 (A) (A) (A) (A) (A) (A) (A) (A) (A) (A) (A) (A)
                 (A) (A) (A) (A) (A) (A) (A) (A) (A) (A) (A) (A)
                 (A) (A) (A) (A) (A) (A) (A) (A) (A) (A) (A)
 The electronic state is 1-A.
 Alpha  occ. eigenvalues --  -88.89834 -88.83560 -77.20842 -19.20263 -19.19218
 Alpha  occ. eigenvalues --  -10.27283 -10.27193 -10.25827 -10.25660 -10.22005
 Alpha  occ. eigenvalues --  -10.21938 -10.21648 -10.21610 -10.21161 -10.20853
 Alpha  occ. eigenvalues --  -10.20450 -10.20163 -10.19905 -10.19814 -10.19719
 Alpha  occ. eigenvalues --   -7.96093  -7.89824  -6.66353  -5.92549  -5.92246
 Alpha  occ. eigenvalues --   -5.91566  -5.86388  -5.85647  -5.85526  -4.82796
 Alpha  occ. eigenvalues --   -4.82577  -4.82369  -1.08519  -1.07100  -0.87794
 Alpha  occ. eigenvalues --   -0.87295  -0.83037  -0.79909  -0.77253  -0.76190
 Alpha  occ. eigenvalues --   -0.75467  -0.74832  -0.71429  -0.69335  -0.65054
 Alpha  occ. eigenvalues --   -0.63264  -0.62164  -0.61479  -0.58920  -0.57404
 Alpha  occ. eigenvalues --   -0.55013  -0.52925  -0.51284  -0.50122  -0.49548
 Alpha  occ. eigenvalues --   -0.49012  -0.48683  -0.46826  -0.46487  -0.45929
 Alpha  occ. eigenvalues --   -0.44367  -0.43678  -0.43124  -0.42775  -0.42043
 Alpha  occ. eigenvalues --   -0.40393  -0.39587  -0.38818  -0.37837  -0.36949
 Alpha  occ. eigenvalues --   -0.36646  -0.36187  -0.35756  -0.35051  -0.34273
 Alpha  occ. eigenvalues --   -0.33179  -0.31075  -0.28043  -0.27220  -0.26111
 Alpha  occ. eigenvalues --   -0.25507  -0.25192  -0.23806  -0.22582
 Alpha virt. eigenvalues --   -0.04720  -0.03177  -0.02978  -0.02649  -0.01661
 Alpha virt. eigenvalues --   -0.00977  -0.00465   0.00489   0.00937   0.01387
 Alpha virt. eigenvalues --    0.01696   0.02132   0.02797   0.02978   0.03142
 Alpha virt. eigenvalues --    0.03765   0.04172   0.04351   0.04658   0.05298
 Alpha virt. eigenvalues --    0.05511   0.05798   0.06604   0.06967   0.07624
 Alpha virt. eigenvalues --    0.07757   0.08154   0.08278   0.08756   0.08981
 Alpha virt. eigenvalues --    0.09507   0.09745   0.10444   0.10528   0.10962
 Alpha virt. eigenvalues --    0.11520   0.11746   0.12021   0.12411   0.12694
 Alpha virt. eigenvalues --    0.12772   0.13013   0.13187   0.13753   0.13974
 Alpha virt. eigenvalues --    0.14351   0.14674   0.15044   0.15465   0.15869
 Alpha virt. eigenvalues --    0.16174   0.16518   0.16792   0.17154   0.17424
 Alpha virt. eigenvalues --    0.17499   0.17778   0.18229   0.18514   0.18880
 Alpha virt. eigenvalues --    0.18964   0.19569   0.19970   0.20396   0.20627
 Alpha virt. eigenvalues --    0.20694   0.21005   0.21263   0.21458   0.21721
 Alpha virt. eigenvalues --    0.21971   0.22172   0.22288   0.22544   0.22702
 Alpha virt. eigenvalues --    0.23260   0.23559   0.23676   0.24114   0.24529
 Alpha virt. eigenvalues --    0.24753   0.25127   0.25408   0.25656   0.26361
 Alpha virt. eigenvalues --    0.26818   0.27480   0.27839   0.27934   0.28171
 Alpha virt. eigenvalues --    0.28358   0.28824   0.29495   0.29732   0.29736
 Alpha virt. eigenvalues --    0.30406   0.30824   0.31228   0.31603   0.31760
 Alpha virt. eigenvalues --    0.32416   0.32835   0.33401   0.33727   0.34497
 Alpha virt. eigenvalues --    0.34851   0.35257   0.35798   0.36567   0.37108
 Alpha virt. eigenvalues --    0.38024   0.38260   0.38418   0.39317   0.39987
 Alpha virt. eigenvalues --    0.40815   0.42090   0.43124   0.44858   0.47405
 Alpha virt. eigenvalues --    0.49303   0.50770   0.51694   0.52285   0.55246
 Alpha virt. eigenvalues --    0.55559   0.57317   0.57887   0.58851   0.61252
 Alpha virt. eigenvalues --    0.61361   0.62089   0.63172   0.64538   0.65467
 Alpha virt. eigenvalues --    0.66040   0.67444   0.68439   0.68652   0.69298
 Alpha virt. eigenvalues --    0.69842   0.70429   0.70824   0.70981   0.72685
 Alpha virt. eigenvalues --    0.72718   0.73284   0.73859   0.74072   0.74264
 Alpha virt. eigenvalues --    0.74748   0.75434   0.75642   0.76531   0.76672
 Alpha virt. eigenvalues --    0.77722   0.78215   0.78674   0.79800   0.80469
 Alpha virt. eigenvalues --    0.81327   0.82280   0.82895   0.83519   0.83861
 Alpha virt. eigenvalues --    0.85146   0.85556   0.86344   0.86922   0.87356
 Alpha virt. eigenvalues --    0.88131   0.88599   0.89922   0.90555   0.91488
 Alpha virt. eigenvalues --    0.91993   0.92474   0.93055   0.94210   0.94820
 Alpha virt. eigenvalues --    0.95724   0.96568   0.96769   0.98190   0.98659
 Alpha virt. eigenvalues --    0.99340   1.00525   1.00914   1.01639   1.02254
 Alpha virt. eigenvalues --    1.03119   1.04601   1.05530   1.06814   1.08004
 Alpha virt. eigenvalues --    1.08382   1.09461   1.10400   1.11646   1.12466
 Alpha virt. eigenvalues --    1.12912   1.14020   1.14369   1.15786   1.17150
 Alpha virt. eigenvalues --    1.18125   1.18720   1.20058   1.20615   1.21611
 Alpha virt. eigenvalues --    1.22586   1.23341   1.25500   1.26941   1.27667
 Alpha virt. eigenvalues --    1.28575   1.29906   1.30631   1.31097   1.33127
 Alpha virt. eigenvalues --    1.34852   1.35769   1.36205   1.37661   1.38171
 Alpha virt. eigenvalues --    1.39080   1.39903   1.40084   1.41098   1.41771
 Alpha virt. eigenvalues --    1.42243   1.43075   1.44067   1.44565   1.46657
 Alpha virt. eigenvalues --    1.46999   1.48111   1.49224   1.51805   1.55312
 Alpha virt. eigenvalues --    1.59419   1.64652   1.66512   1.68550   1.72660
 Alpha virt. eigenvalues --    1.74869   1.77613   1.78699   1.80566   1.81730
 Alpha virt. eigenvalues --    1.82727   1.84559   1.86506   1.87970   1.88909
 Alpha virt. eigenvalues --    1.89547   1.90331   1.90588   1.91254   1.92081
 Alpha virt. eigenvalues --    1.93093   1.94353   1.95101   1.95716   1.97176
 Alpha virt. eigenvalues --    1.97960   1.98468   1.99102   2.00170   2.00837
 Alpha virt. eigenvalues --    2.01231   2.01599   2.01781   2.03612   2.05705
 Alpha virt. eigenvalues --    2.06365   2.07867   2.08276   2.09975   2.10161
 Alpha virt. eigenvalues --    2.11638   2.12800   2.15100   2.15862   2.16959
 Alpha virt. eigenvalues --    2.19285   2.21181   2.24108   2.26725   2.28152
 Alpha virt. eigenvalues --    2.28787   2.30185   2.32252   2.32333   2.36880
 Alpha virt. eigenvalues --    2.38253   2.39822   2.39839   2.40507   2.41463
 Alpha virt. eigenvalues --    2.44321   2.46064   2.46862   2.47568   2.48427
 Alpha virt. eigenvalues --    2.49483   2.50160   2.51049   2.53236   2.53743
 Alpha virt. eigenvalues --    2.54466   2.56289   2.56758   2.57101   2.57795
 Alpha virt. eigenvalues --    2.58454   2.59279   2.59534   2.62137   2.62645
 Alpha virt. eigenvalues --    2.64162   2.64526   2.68085   2.68264   2.70437
 Alpha virt. eigenvalues --    2.70706   2.72517   2.73540   2.75809   2.76564
 Alpha virt. eigenvalues --    2.77279   2.78080   2.81127   2.83572   2.83744
 Alpha virt. eigenvalues --    2.85709   2.86562   2.89599   2.95011   2.97812
 Alpha virt. eigenvalues --    3.02879   3.05381   3.06182   3.08312   3.17828
 Alpha virt. eigenvalues --    3.19433   3.21430   3.26387   3.27369   3.28606
 Alpha virt. eigenvalues --    3.31202   3.31689   3.34889   3.36104   3.39591
 Alpha virt. eigenvalues --    3.42034   3.46138   3.46311   3.47045   3.51550
 Alpha virt. eigenvalues --    3.52322   3.54955   3.79560   3.88931   3.96741
 Alpha virt. eigenvalues --    4.00096   4.29218   4.30070   4.30611   4.32243
 Alpha virt. eigenvalues --    4.34249   4.38850   4.42457   4.45654   4.48113
 Alpha virt. eigenvalues --    4.50402   4.50705   4.54103   4.57054   4.57913
 Alpha virt. eigenvalues --    4.65243   4.85134   4.86227
          Condensed to atoms (all electrons):
               1          2          3          4          5          6
     1  C    6.182584  -0.908864   0.850707  -1.651830   1.454067  -0.061355
     2  C   -0.908864  18.477607 -10.053325  -1.538316  -3.436004   1.963477
     3  C    0.850707 -10.053325  26.737605   2.353892  -8.348940  -1.066487
     4  C   -1.651830  -1.538316   2.353892  25.639656 -10.453102   0.437242
     5  C    1.454067  -3.436004  -8.348940 -10.453102  25.932303  -4.365083
     6  C   -0.061355   1.963477  -1.066487   0.437242  -4.365083   8.882649
     7  H    0.244486   0.009638   0.041421   0.006512   0.006576   0.000939
     8  H    0.001638  -0.004230   0.015934   0.049853  -0.000514   0.254082
     9  H    0.013481   0.095575   0.242004  -0.015808  -0.030662   0.003367
    10  H    0.007428   0.222103   0.071096   0.012772  -0.000263  -0.001893
    11  H   -0.003664  -0.006751   0.055345   0.116842   0.113269   0.013516
    12  C   -0.216800   2.217991  -5.876808 -11.227209   5.594503   0.478055
    13  C    0.126094  -0.438790   1.233528   2.539648  -0.911103  -0.413198
    14  O   -0.022129   0.127888  -0.045603  -0.595372   0.152283   0.040640
    15  H   -0.000172   0.006246   0.011692   0.017957   0.002382   0.001625
    16  H   -0.001706  -0.017185  -0.001989   0.056985  -0.020777  -0.003351
    17  S   -0.015621   0.068399  -0.263522   0.241979   0.005145   0.002513
    18  H    0.000014  -0.000825  -0.005422   0.005001   0.000735  -0.000021
    19  P    0.140800  -0.601543   0.462122  -0.460182   0.184284  -0.193725
    20  C    0.007700   0.064685   0.053182   0.940350  -0.168177  -0.026623
    21  S   -0.020835   0.096226  -0.194966  -0.026235   0.019559   0.099567
    22  C   -0.013326   0.097550   0.586377   0.578114  -0.462568   0.015423
    23  H   -0.000000   0.000004   0.000078  -0.000129  -0.000002   0.000000
    24  C   -0.004888   0.014453  -0.096819  -0.113750   0.043772   0.006152
    25  H   -0.000000   0.000000   0.000001  -0.000001  -0.000000   0.000000
    26  C    0.002786  -0.069165  -0.114786  -0.930773   0.278604   0.016357
    27  C    0.000670  -0.000184   0.018311   0.044999  -0.009610  -0.001067
    28  H   -0.000006   0.000083   0.000724   0.000776  -0.000210   0.000063
    29  C   -0.000679  -0.006315  -0.091994  -0.082620   0.071605   0.004481
    30  C   -0.000002   0.000056   0.000372  -0.000532  -0.000034   0.000006
    31  O   -0.000000   0.000002   0.000028  -0.000375   0.000012   0.000000
    32  H    0.000000  -0.000001  -0.000016   0.000031   0.000001  -0.000000
    33  H    0.000000   0.000000   0.000000  -0.000000  -0.000000  -0.000000
    34  H    0.000000  -0.000002  -0.000042   0.000077   0.000002  -0.000001
    35  H    0.007369  -0.005109  -0.063262  -0.312038   0.193919   0.001935
               7          8          9         10         11         12
     1  C    0.244486   0.001638   0.013481   0.007428  -0.003664  -0.216800
     2  C    0.009638  -0.004230   0.095575   0.222103  -0.006751   2.217991
     3  C    0.041421   0.015934   0.242004   0.071096   0.055345  -5.876808
     4  C    0.006512   0.049853  -0.015808   0.012772   0.116842 -11.227209
     5  C    0.006576  -0.000514  -0.030662  -0.000263   0.113269   5.594503
     6  C    0.000939   0.254082   0.003367  -0.001893   0.013516   0.478055
     7  H    0.578925  -0.005846  -0.000176  -0.005614  -0.000163  -0.001313
     8  H   -0.005846   0.577090   0.000015  -0.000176  -0.006030  -0.008359
     9  H   -0.000176   0.000015   0.556060  -0.007240  -0.000144  -0.043782
    10  H   -0.005614  -0.000176  -0.007240   0.573436   0.000015  -0.003389
    11  H   -0.000163  -0.006030  -0.000144   0.000015   0.594563  -0.012974
    12  C   -0.001313  -0.008359  -0.043782  -0.003389  -0.012974  19.809676
    13  C    0.000083   0.001007   0.041175   0.000736   0.008271  -4.566874
    14  O    0.000004   0.000001  -0.017188   0.000300   0.000098   0.947956
    15  H    0.000000  -0.000000  -0.000034  -0.000000  -0.000003  -0.065726
    16  H   -0.000000   0.000000  -0.001260  -0.000002  -0.000007  -0.127080
    17  S   -0.000015  -0.000016   0.007728  -0.000549   0.000005  -0.267487
    18  H   -0.000000  -0.000000   0.000006  -0.000000  -0.000000  -0.000922
    19  P   -0.000075   0.000179   0.006537   0.000878   0.001476  -0.343669
    20  C   -0.000001  -0.000001   0.008913  -0.000042   0.000040  -2.171763
    21  S   -0.000017  -0.000655  -0.006317   0.000010   0.009481  -0.286203
    22  C    0.000006   0.000004  -0.006590   0.000072  -0.000199  -0.390248
    23  H   -0.000000   0.000000   0.000000  -0.000000  -0.000000   0.000218
    24  C   -0.000000  -0.000000   0.000644   0.000000   0.000009   0.507699
    25  H    0.000000  -0.000000   0.000000  -0.000000   0.000000  -0.000007
    26  C   -0.000000   0.000002  -0.003496   0.000045  -0.000014   1.447096
    27  C   -0.000000   0.000000   0.000122   0.000001  -0.000002  -0.165680
    28  H   -0.000000  -0.000000  -0.000000  -0.000000  -0.000000   0.004818
    29  C    0.000000  -0.000000  -0.000278  -0.000001  -0.000005   0.381361
    30  C    0.000000   0.000000  -0.000000   0.000000   0.000000   0.001115
    31  O    0.000000  -0.000000  -0.000000   0.000000   0.000000   0.000190
    32  H   -0.000000  -0.000000  -0.000000   0.000000  -0.000000   0.000044
    33  H    0.000000   0.000000  -0.000000   0.000000  -0.000000  -0.000001
    34  H   -0.000000   0.000000   0.000000   0.000000  -0.000000  -0.001008
    35  H   -0.000000  -0.000004  -0.000164   0.000003   0.002208   0.544069
              13         14         15         16         17         18
     1  C    0.126094  -0.022129  -0.000172  -0.001706  -0.015621   0.000014
     2  C   -0.438790   0.127888   0.006246  -0.017185   0.068399  -0.000825
     3  C    1.233528  -0.045603   0.011692  -0.001989  -0.263522  -0.005422
     4  C    2.539648  -0.595372   0.017957   0.056985   0.241979   0.005001
     5  C   -0.911103   0.152283   0.002382  -0.020777   0.005145   0.000735
     6  C   -0.413198   0.040640   0.001625  -0.003351   0.002513  -0.000021
     7  H    0.000083   0.000004   0.000000  -0.000000  -0.000015  -0.000000
     8  H    0.001007   0.000001  -0.000000   0.000000  -0.000016  -0.000000
     9  H    0.041175  -0.017188  -0.000034  -0.001260   0.007728   0.000006
    10  H    0.000736   0.000300  -0.000000  -0.000002  -0.000549  -0.000000
    11  H    0.008271   0.000098  -0.000003  -0.000007   0.000005  -0.000000
    12  C   -4.566874   0.947956  -0.065726  -0.127080  -0.267487  -0.000922
    13  C    7.840129  -0.524110   0.403566   0.480838   0.214078   0.002451
    14  O   -0.524110   9.298734  -0.039208  -0.043799  -0.091323   0.003373
    15  H    0.403566  -0.039208   0.568522  -0.040329  -0.005142   0.000002
    16  H    0.480838  -0.043799  -0.040329   0.554043   0.001040   0.000010
    17  S    0.214078  -0.091323  -0.005142   0.001040  16.805259   0.004554
    18  H    0.002451   0.003373   0.000002   0.000010   0.004554   0.553231
    19  P   -0.174265  -0.562917  -0.046367  -0.007672  -0.157461   0.000968
    20  C    1.648477  -1.339830   0.082851  -0.023531   0.689990   0.326163
    21  S    0.352100  -0.141528  -0.018817   0.016716  -0.019748   0.001815
    22  C   -0.051658   0.032410  -0.027274   0.004517  -0.603615   0.113419
    23  H   -0.000465   0.000179  -0.000001   0.000000  -0.000402  -0.006692
    24  C   -0.328353   0.458734  -0.042601   0.005698   0.123745  -0.148787
    25  H    0.000008   0.000001   0.000000  -0.000000   0.000015   0.000006
    26  C   -0.930934   0.439511   0.032683   0.005041  -0.734436   0.023713
    27  C    0.149993  -0.124028   0.020394  -0.002535  -0.041484  -0.018846
    28  H   -0.009963   0.001496  -0.000076   0.000003  -0.001301  -0.000149
    29  C   -0.317170   0.253863  -0.025684   0.002517   0.114580  -0.005132
    30  C   -0.000543  -0.000393  -0.000004  -0.000006  -0.000305  -0.000709
    31  O   -0.000359   0.000109  -0.000041   0.000001   0.000227  -0.000594
    32  H   -0.000108  -0.000013  -0.000001   0.000000  -0.000026   0.000002
    33  H    0.000007  -0.000000  -0.000000   0.000000  -0.000000  -0.000000
    34  H    0.000585  -0.000032  -0.000006   0.000000   0.000302   0.000011
    35  H   -0.082832   0.009529  -0.001382  -0.000614  -0.001444   0.000000
              19         20         21         22         23         24
     1  C    0.140800   0.007700  -0.020835  -0.013326  -0.000000  -0.004888
     2  C   -0.601543   0.064685   0.096226   0.097550   0.000004   0.014453
     3  C    0.462122   0.053182  -0.194966   0.586377   0.000078  -0.096819
     4  C   -0.460182   0.940350  -0.026235   0.578114  -0.000129  -0.113750
     5  C    0.184284  -0.168177   0.019559  -0.462568  -0.000002   0.043772
     6  C   -0.193725  -0.026623   0.099567   0.015423   0.000000   0.006152
     7  H   -0.000075  -0.000001  -0.000017   0.000006  -0.000000  -0.000000
     8  H    0.000179  -0.000001  -0.000655   0.000004   0.000000  -0.000000
     9  H    0.006537   0.008913  -0.006317  -0.006590   0.000000   0.000644
    10  H    0.000878  -0.000042   0.000010   0.000072  -0.000000   0.000000
    11  H    0.001476   0.000040   0.009481  -0.000199  -0.000000   0.000009
    12  C   -0.343669  -2.171763  -0.286203  -0.390248   0.000218   0.507699
    13  C   -0.174265   1.648477   0.352100  -0.051658  -0.000465  -0.328353
    14  O   -0.562917  -1.339830  -0.141528   0.032410   0.000179   0.458734
    15  H   -0.046367   0.082851  -0.018817  -0.027274  -0.000001  -0.042601
    16  H   -0.007672  -0.023531   0.016716   0.004517   0.000000   0.005698
    17  S   -0.157461   0.689990  -0.019748  -0.603615  -0.000402   0.123745
    18  H    0.000968   0.326163   0.001815   0.113419  -0.006692  -0.148787
    19  P   20.413557  -1.590363  -0.529717  -3.868557   0.003076  -0.898063
    20  C   -1.590363  33.570181   0.119797  -7.724609   0.027592 -11.685954
    21  S   -0.529717   0.119797  16.399736   0.368020   0.000077   0.006258
    22  C   -3.868557  -7.724609   0.368020  26.118984   0.042579   3.976566
    23  H    0.003076   0.027592   0.000077   0.042579   0.576461   0.245241
    24  C   -0.898063 -11.685954   0.006258   3.976566   0.245241  18.293047
    25  H    0.000037   0.019744  -0.000003   0.000773  -0.001052   0.136808
    26  C    3.485621  -6.783848  -0.235427 -10.713218   0.017655  -1.940086
    27  C    0.021564   3.929773  -0.007354  -5.309652  -0.031234  -3.189773
    28  H    0.050765  -0.020731  -0.012366   0.002104   0.000015   0.006882
    29  C   -0.027805  -3.725301  -0.140502   3.345209   0.004256  -0.013282
    30  C   -0.010596   0.038625   0.000602  -0.020760   0.006946  -0.016107
    31  O    0.006137  -0.070496   0.000199  -0.035234  -0.010970   0.207872
    32  H    0.000286   0.049008  -0.000034   0.008329  -0.001054   0.005847
    33  H   -0.000146  -0.020216   0.000006  -0.000631   0.000114  -0.083215
    34  H    0.004198  -0.012649  -0.000376   0.050325  -0.000147   0.039575
    35  H    0.012757  -0.006092  -0.047642  -0.017242   0.000000   0.000346
              25         26         27         28         29         30
     1  C   -0.000000   0.002786   0.000670  -0.000006  -0.000679  -0.000002
     2  C    0.000000  -0.069165  -0.000184   0.000083  -0.006315   0.000056
     3  C    0.000001  -0.114786   0.018311   0.000724  -0.091994   0.000372
     4  C   -0.000001  -0.930773   0.044999   0.000776  -0.082620  -0.000532
     5  C   -0.000000   0.278604  -0.009610  -0.000210   0.071605  -0.000034
     6  C    0.000000   0.016357  -0.001067   0.000063   0.004481   0.000006
     7  H    0.000000  -0.000000  -0.000000  -0.000000   0.000000   0.000000
     8  H   -0.000000   0.000002   0.000000  -0.000000  -0.000000   0.000000
     9  H    0.000000  -0.003496   0.000122  -0.000000  -0.000278  -0.000000
    10  H   -0.000000   0.000045   0.000001  -0.000000  -0.000001   0.000000
    11  H    0.000000  -0.000014  -0.000002  -0.000000  -0.000005   0.000000
    12  C   -0.000007   1.447096  -0.165680   0.004818   0.381361   0.001115
    13  C    0.000008  -0.930934   0.149993  -0.009963  -0.317170  -0.000543
    14  O    0.000001   0.439511  -0.124028   0.001496   0.253863  -0.000393
    15  H    0.000000   0.032683   0.020394  -0.000076  -0.025684  -0.000004
    16  H   -0.000000   0.005041  -0.002535   0.000003   0.002517  -0.000006
    17  S    0.000015  -0.734436  -0.041484  -0.001301   0.114580  -0.000305
    18  H    0.000006   0.023713  -0.018846  -0.000149  -0.005132  -0.000709
    19  P    0.000037   3.485621   0.021564   0.050765  -0.027805  -0.010596
    20  C    0.019744  -6.783848   3.929773  -0.020731  -3.725301   0.038625
    21  S   -0.000003  -0.235427  -0.007354  -0.012366  -0.140502   0.000602
    22  C    0.000773 -10.713218  -5.309652   0.002104   3.345209  -0.020760
    23  H   -0.001052   0.017655  -0.031234   0.000015   0.004256   0.006946
    24  C    0.136808  -1.940086  -3.189773   0.006882  -0.013282  -0.016107
    25  H    0.578022   0.009335  -0.113520  -0.000000  -0.086651   0.422878
    26  C    0.009335  26.886177   3.350468   0.246998  -7.694282   0.065997
    27  C   -0.113520   3.350468  10.847005  -0.017560  -3.554875  -0.095921
    28  H   -0.000000   0.246998  -0.017560   0.565978   0.049117   0.000025
    29  C   -0.086651  -7.694282  -3.554875   0.049117  17.988961  -0.120073
    30  C    0.422878   0.065997  -0.095921   0.000025  -0.120073   5.030105
    31  O   -0.036964   0.014195   0.485398  -0.000473  -0.601088   0.066060
    32  H   -0.041746  -0.015528  -0.072603   0.000000   0.029521   0.394804
    33  H   -0.032451   0.000901   0.072111  -0.000000   0.049667   0.405904
    34  H    0.000005  -0.032896   0.009425  -0.005731   0.264169  -0.001266
    35  H    0.000000   0.020211   0.000654   0.000008   0.001442   0.000003
              31         32         33         34         35
     1  C   -0.000000   0.000000   0.000000   0.000000   0.007369
     2  C    0.000002  -0.000001   0.000000  -0.000002  -0.005109
     3  C    0.000028  -0.000016   0.000000  -0.000042  -0.063262
     4  C   -0.000375   0.000031  -0.000000   0.000077  -0.312038
     5  C    0.000012   0.000001  -0.000000   0.000002   0.193919
     6  C    0.000000  -0.000000  -0.000000  -0.000001   0.001935
     7  H    0.000000  -0.000000   0.000000  -0.000000  -0.000000
     8  H   -0.000000  -0.000000   0.000000   0.000000  -0.000004
     9  H   -0.000000  -0.000000  -0.000000   0.000000  -0.000164
    10  H    0.000000   0.000000   0.000000   0.000000   0.000003
    11  H    0.000000  -0.000000  -0.000000  -0.000000   0.002208
    12  C    0.000190   0.000044  -0.000001  -0.001008   0.544069
    13  C   -0.000359  -0.000108   0.000007   0.000585  -0.082832
    14  O    0.000109  -0.000013  -0.000000  -0.000032   0.009529
    15  H   -0.000041  -0.000001  -0.000000  -0.000006  -0.001382
    16  H    0.000001   0.000000   0.000000   0.000000  -0.000614
    17  S    0.000227  -0.000026  -0.000000   0.000302  -0.001444
    18  H   -0.000594   0.000002  -0.000000   0.000011   0.000000
    19  P    0.006137   0.000286  -0.000146   0.004198   0.012757
    20  C   -0.070496   0.049008  -0.020216  -0.012649  -0.006092
    21  S    0.000199  -0.000034   0.000006  -0.000376  -0.047642
    22  C   -0.035234   0.008329  -0.000631   0.050325  -0.017242
    23  H   -0.010970  -0.001054   0.000114  -0.000147   0.000000
    24  C    0.207872   0.005847  -0.083215   0.039575   0.000346
    25  H   -0.036964  -0.041746  -0.032451   0.000005   0.000000
    26  C    0.014195  -0.015528   0.000901  -0.032896   0.020211
    27  C    0.485398  -0.072603   0.072111   0.009425   0.000654
    28  H   -0.000473   0.000000  -0.000000  -0.005731   0.000008
    29  C   -0.601088   0.029521   0.049667   0.264169   0.001442
    30  C    0.066060   0.394804   0.405904  -0.001266   0.000003
    31  O    8.433568  -0.043050  -0.059793  -0.009645   0.000000
    32  H   -0.043050   0.565581  -0.028744  -0.000002   0.000000
    33  H   -0.059793  -0.028744   0.542970  -0.000016  -0.000000
    34  H   -0.009645  -0.000002  -0.000016   0.556782   0.000000
    35  H    0.000000   0.000000  -0.000000   0.000000   0.551761
 Mulliken charges:
               1
     1  C   -0.117948
     2  C   -0.375374
     3  C   -0.510435
     4  C    0.365586
     5  C    0.154022
     6  C   -0.089288
     7  H    0.124631
     8  H    0.126028
     9  H    0.157514
    10  H    0.130273
    11  H    0.114819
    12  C   -0.157489
    13  C   -0.292048
    14  O   -0.219637
    15  H    0.164948
    16  H    0.164431
    17  S   -0.075662
    18  H    0.152626
    19  P   -0.322118
    20  C   -0.206844
    21  S    0.198574
    22  C   -0.095402
    23  H    0.127656
    24  C    0.482330
    25  H    0.144760
    26  C   -0.144507
    27  C   -0.194963
    28  H    0.138712
    29  C   -0.067012
    30  C   -0.166246
    31  O   -0.344918
    32  H    0.149472
    33  H    0.153534
    34  H    0.138362
    35  H    0.191613
 Sum of Mulliken charges =  -0.00000
 Mulliken charges with hydrogens summed into heavy atoms:
               1
     1  C    0.006683
     2  C   -0.245102
     3  C   -0.352921
     4  C    0.365586
     5  C    0.268841
     6  C    0.036740
    12  C    0.034124
    13  C    0.037330
    14  O   -0.219637
    17  S   -0.075662
    19  P   -0.322118
    20  C   -0.054218
    21  S    0.198574
    22  C   -0.095402
    24  C    0.609986
    26  C   -0.005795
    27  C   -0.194963
    29  C    0.071349
    30  C    0.281520
    31  O   -0.344918
 Electronic spatial extent (au):  <R**2>=           8749.9520
 Charge=              0.0000 electrons
 Dipole moment (field-independent basis, Debye):
    X=             -1.7063    Y=             -5.0411    Z=             -2.6645  Tot=              5.9518
 Quadrupole moment (field-independent basis, Debye-Ang):
   XX=           -120.4520   YY=           -145.7333   ZZ=           -136.0824
   XY=             -2.1583   XZ=              8.6181   YZ=             -5.2223
 Traceless Quadrupole moment (field-independent basis, Debye-Ang):
   XX=             13.6372   YY=            -11.6441   ZZ=             -1.9932
   XY=             -2.1583   XZ=              8.6181   YZ=             -5.2223
 Octapole moment (field-independent basis, Debye-Ang**2):
  XXX=            -29.6861  YYY=            -38.9221  ZZZ=             -9.6535  XYY=             -6.9710
  XXY=            -19.3169  XXZ=            -77.1026  XZZ=            -35.4428  YZZ=             -6.2035
  YYZ=             -9.5702  XYZ=            -19.4635
 Hexadecapole moment (field-independent basis, Debye-Ang**3):
 XXXX=          -8783.3129 YYYY=          -1419.4932 ZZZZ=          -1004.8282 XXXY=             94.2068
 XXXZ=            411.4667 YYYX=             29.7158 YYYZ=            -31.2929 ZZZX=             25.7302
 ZZZY=            -22.4298 XXYY=          -1838.6142 XXZZ=          -1674.5810 YYZZ=           -389.5864
 XXYZ=            -66.0948 YYXZ=             39.8420 ZZXY=             46.3553
 N-N= 1.934126583745D+03 E-N=-8.268854542256D+03  KE= 1.858123088254D+03
 Calling FoFJK, ICntrl=      2127 FMM=F ISym2X=0 I1Cent= 0 IOpClX= 0 NMat=1 NMatS=1 NMatT=0.
 ***** Axes restored to original set *****
 -------------------------------------------------------------------
 Center     Atomic                   Forces (Hartrees/Bohr)
 Number     Number              X              Y              Z
 -------------------------------------------------------------------
      1        6          -0.005160590    0.000705009   -0.004928416
      2        6           0.001995875    0.000087677    0.002116297
      3        6          -0.002847875   -0.001815059    0.006698632
      4        6          -0.003744287   -0.001452419   -0.002734870
      5        6          -0.001553339   -0.001549570   -0.001723568
      6        6           0.003756659    0.000890761   -0.002100123
      7        1           0.000498852    0.000097365   -0.001042228
      8        1           0.001252056    0.000063805    0.000370674
      9        1           0.005386305    0.000630094   -0.001650951
     10        1           0.001260932    0.000146601   -0.000107480
     11        1           0.000629548   -0.000434576    0.001488840
     12        6          -0.012957767   -0.013100992    0.003919344
     13        6           0.003190813   -0.007222957    0.001605627
     14        8          -0.003426574   -0.010102477   -0.014141600
     15        1           0.001574911    0.000621523   -0.002665631
     16        1          -0.003777166    0.003504157    0.000394752
     17       16           0.006017152    0.001289570    0.000260075
     18        1           0.003146812    0.001182234   -0.000392042
     19       15          -0.018336438    0.008963894    0.013635386
     20        6          -0.003813126    0.000023985   -0.003708026
     21       16           0.011205997    0.011717701   -0.008695826
     22        6           0.005321968    0.002346427    0.011097319
     23        1           0.001978819   -0.000244946   -0.000832191
     24        6          -0.012683892   -0.001793750    0.003796768
     25        1          -0.002301262   -0.001361206    0.000257764
     26        6           0.009121081   -0.002870658    0.005296834
     27        6           0.014504816    0.004019591   -0.005219952
     28        1          -0.001354690   -0.001176055    0.000825681
     29        6           0.000540640    0.004814529   -0.008715567
     30        6           0.004758096   -0.003059120    0.007286836
     31        8          -0.005173135   -0.004989461   -0.000930757
     32        1          -0.001743459    0.002827342   -0.000360919
     33        1           0.001975103    0.004276929   -0.002073698
     34        1          -0.001171578   -0.000919962    0.001590174
     35        1           0.001928742    0.003884015    0.001382845
 -------------------------------------------------------------------
 Cartesian Forces:  Max     0.018336438 RMS     0.005363184

 GradGradGradGradGradGradGradGradGradGradGradGradGradGradGradGradGradGrad
 Berny optimization.
 FormGI is forming the generalized inverse of G from B-inverse, IUseBI=4.
 Internal  Forces:  Max     0.016641202 RMS     0.003856240
 Search for a local minimum.
 Step number   1 out of a maximum of  196
 All quantities printed in internal units (Hartrees-Bohrs-Radians)
 Mixed Optimization -- RFO/linear search
 Second derivative matrix not updated -- first step.
 ITU=  0
     Eigenvalues ---    0.00479   0.00587   0.01216   0.01329   0.01387
     Eigenvalues ---    0.01683   0.01744   0.02028   0.02045   0.02062
     Eigenvalues ---    0.02072   0.02079   0.02086   0.02106   0.02111
     Eigenvalues ---    0.02114   0.02116   0.02141   0.02162   0.02191
     Eigenvalues ---    0.02196   0.02197   0.02217   0.02223   0.04391
     Eigenvalues ---    0.04933   0.05373   0.06407   0.07251   0.07617
     Eigenvalues ---    0.09950   0.10331   0.10475   0.11495   0.12244
     Eigenvalues ---    0.14632   0.15373   0.15978   0.15981   0.15990
     Eigenvalues ---    0.15996   0.15998   0.15998   0.16000   0.16000
     Eigenvalues ---    0.16000   0.16000   0.16000   0.16000   0.16838
     Eigenvalues ---    0.18876   0.20540   0.21981   0.21997   0.21999
     Eigenvalues ---    0.22903   0.23169   0.23452   0.23975   0.24301
     Eigenvalues ---    0.24873   0.24979   0.25000   0.25000   0.26427
     Eigenvalues ---    0.27349   0.30205   0.33987   0.34019   0.34056
     Eigenvalues ---    0.34256   0.34306   0.34387   0.34824   0.35018
     Eigenvalues ---    0.35094   0.35113   0.35120   0.35180   0.35228
     Eigenvalues ---    0.35237   0.35344   0.38410   0.40939   0.41100
     Eigenvalues ---    0.41108   0.41359   0.41436   0.41785   0.42290
     Eigenvalues ---    0.44842   0.44980   0.45720   0.46067   0.46202
     Eigenvalues ---    0.46654   0.47152   0.47170   0.51231
 RFO step:  Lambda=-1.65107940D-02 EMin= 4.79162689D-03
 Linear search not attempted -- first point.
 Iteration  1 RMS(Cart)=  0.26876321 RMS(Int)=  0.00852991
 Iteration  2 RMS(Cart)=  0.03110095 RMS(Int)=  0.00059496
 Iteration  3 RMS(Cart)=  0.00041331 RMS(Int)=  0.00058586
 Iteration  4 RMS(Cart)=  0.00000019 RMS(Int)=  0.00058586
 Variable       Old X    -DE/DX   Delta X   Delta X   Delta X     New X
                                 (Linear)    (Quad)   (Total)
    R1        2.62360   0.00808   0.00000   0.01723   0.01722   2.64082
    R2        2.63173   0.00293   0.00000   0.00647   0.00646   2.63818
    R3        2.05306   0.00009   0.00000   0.00023   0.00023   2.05329
    R4        2.63685   0.00237   0.00000   0.00534   0.00534   2.64219
    R5        2.05493  -0.00114   0.00000  -0.00311  -0.00311   2.05182
    R6        2.65917  -0.00340   0.00000  -0.00780  -0.00778   2.65138
    R7        2.05292  -0.00198   0.00000  -0.00537  -0.00537   2.04756
    R8        2.65401  -0.00020   0.00000  -0.00129  -0.00129   2.65272
    R9        2.87556   0.00027   0.00000   0.00086   0.00086   2.87642
   R10        2.64427  -0.00265   0.00000  -0.00600  -0.00601   2.63826
   R11        2.05646  -0.00024   0.00000  -0.00066  -0.00066   2.05579
   R12        2.05383  -0.00037   0.00000  -0.00101  -0.00101   2.05282
   R13        2.91621  -0.00348   0.00000  -0.00827  -0.00793   2.90828
   R14        3.46997   0.01337   0.00000   0.05454   0.05483   3.52480
   R15        2.07235  -0.00155   0.00000  -0.00434  -0.00434   2.06801
   R16        2.71797  -0.00064   0.00000  -0.00211  -0.00191   2.71607
   R17        2.07352   0.00040   0.00000   0.00111   0.00111   2.07463
   R18        2.06817  -0.00103   0.00000  -0.00286  -0.00286   2.06531
   R19        3.11478   0.01443   0.00000   0.03126   0.03091   3.14569
   R20        3.68597  -0.00323   0.00000  -0.00758  -0.00758   3.67840
   R21        2.05961  -0.00323   0.00000  -0.00887  -0.00887   2.05074
   R22        3.98336   0.01146   0.00000   0.04173   0.04136   4.02472
   R23        3.39412   0.01426   0.00000   0.05080   0.05080   3.44492
   R24        2.66391  -0.00281   0.00000  -0.00638  -0.00633   2.65758
   R25        2.62874   0.00263   0.00000   0.00612   0.00614   2.63488
   R26        2.63779   0.00639   0.00000   0.01235   0.01239   2.65018
   R27        2.05120  -0.00132   0.00000  -0.00356  -0.00356   2.04764
   R28        2.62466   0.01275   0.00000   0.02690   0.02687   2.65153
   R29        2.06900   0.00084   0.00000   0.00233   0.00233   2.07134
   R30        2.05523  -0.00162   0.00000  -0.00441  -0.00441   2.05082
   R31        2.64951  -0.00689   0.00000  -0.01543  -0.01545   2.63406
   R32        2.64469   0.00040   0.00000   0.00107   0.00101   2.64570
   R33        2.58643   0.00155   0.00000   0.00294   0.00294   2.58937
   R34        2.05481  -0.00150   0.00000  -0.00409  -0.00409   2.05073
   R35        2.69747   0.00036   0.00000   0.00083   0.00083   2.69830
   R36        2.07297  -0.00079   0.00000  -0.00220  -0.00220   2.07077
   R37        2.06681  -0.00112   0.00000  -0.00310  -0.00310   2.06371
    A1        2.08877  -0.00202   0.00000  -0.00562  -0.00566   2.08311
    A2        2.09192   0.00219   0.00000   0.00952   0.00954   2.10146
    A3        2.10248  -0.00017   0.00000  -0.00388  -0.00387   2.09862
    A4        2.09382   0.00191   0.00000   0.01095   0.01093   2.10475
    A5        2.10121  -0.00039   0.00000  -0.00228  -0.00229   2.09892
    A6        2.08814  -0.00151   0.00000  -0.00863  -0.00864   2.07950
    A7        2.12050  -0.00402   0.00000  -0.01665  -0.01674   2.10377
    A8        2.03288   0.00743   0.00000   0.03918   0.03908   2.07196
    A9        2.12971  -0.00340   0.00000  -0.02220  -0.02230   2.10741
   A10        2.05232   0.00366   0.00000   0.01184   0.01182   2.06414
   A11        2.14508   0.00264   0.00000   0.01110   0.01106   2.15614
   A12        2.08511  -0.00629   0.00000  -0.02240  -0.02245   2.06266
   A13        2.10970   0.00221   0.00000   0.00709   0.00704   2.11674
   A14        2.10268  -0.00275   0.00000  -0.01281  -0.01284   2.08984
   A15        2.07070   0.00055   0.00000   0.00594   0.00591   2.07661
   A16        2.10072  -0.00171   0.00000  -0.00689  -0.00692   2.09380
   A17        2.08756   0.00214   0.00000   0.01073   0.01074   2.09830
   A18        2.09489  -0.00043   0.00000  -0.00383  -0.00381   2.09108
   A19        1.98664   0.00571   0.00000   0.04670   0.04601   2.03265
   A20        1.97166  -0.00263   0.00000   0.00422   0.00290   1.97455
   A21        1.89356  -0.00230   0.00000  -0.02185  -0.02176   1.87180
   A22        1.82630   0.00067   0.00000   0.01296   0.01247   1.83877
   A23        1.88953  -0.00104   0.00000  -0.01189  -0.01145   1.87808
   A24        1.89244  -0.00049   0.00000  -0.03316  -0.03333   1.85911
   A25        1.91804  -0.00018   0.00000   0.00007   0.00014   1.91817
   A26        1.93423  -0.00193   0.00000  -0.01909  -0.01915   1.91508
   A27        1.95046  -0.00055   0.00000   0.00078   0.00080   1.95126
   A28        1.89231   0.00047   0.00000   0.00530   0.00525   1.89757
   A29        1.89499  -0.00001   0.00000  -0.00983  -0.00990   1.88509
   A30        1.87211   0.00230   0.00000   0.02347   0.02352   1.89563
   A31        1.95411   0.00624   0.00000   0.03543   0.03437   1.98848
   A32        1.92887   0.00351   0.00000   0.03902   0.03913   1.96801
   A33        1.71188  -0.00708   0.00000  -0.02500  -0.02394   1.68794
   A34        1.69932   0.01463   0.00000   0.10455   0.10436   1.80369
   A35        2.06564   0.00337   0.00000  -0.00887  -0.01130   2.05434
   A36        2.06634  -0.00561   0.00000  -0.03109  -0.03545   2.03089
   A37        1.91969  -0.00582   0.00000  -0.04467  -0.04580   1.87389
   A38        2.08872   0.00083   0.00000   0.00331   0.00287   2.09159
[...]
 .00000409,-0.00013396,0.00011900,-0.00000319,0.00011452,-0.00000201,-0
 .00001389,0.00001199,-0.00001512,0.00000966,0.00002674,0.00000071,0.00
 002491,0.00000969,0.00000064,0.00003853,-0.00006151,0.00000066,-0.0000
 3223,0.00001990,-0.00000488,-0.00001389,-0.00001303,0.00000455,-0.0000
 2422,-0.00017688,-0.00034822,-0.00010534,0.00028042,-0.00010083,-0.000
 52450,0.00087389,0.00056382,0.00134719,-0.00004272,-0.00009016,-0.0000
 1040,0.00000439,0.00005735,0.00008335,0.00138749,-0.00031894,-0.000008
 99,0.00039702,-0.00009569,0.00029875,-0.00422598,0.00071406,-0.0029528
 1,0.00015880,0.00017884,-0.00380255,0.00021021,0.00014277,0.00060025,0
 .00327168,-0.00114244,0.00291720,0.00056576,-0.00005661,-0.00106418,0.
 00672198,-0.00156846,0.00691236,0.03002972,-0.07871248,-0.07851872,-0.
 00085395,0.00035572,-0.00132907,-0.01872077,0.00523653,-0.03750424,-0.
 00008540,-0.00001963,0.00017011,0.00036683,-0.00023102,0.00617872,0.01
 916549,0.00581097,0.44693419,-0.00006972,0.00000217,-0.00005653,0.0000
 8582,-0.00001800,-0.00007782,-0.00009172,0.00002843,0.00003479,0.00023
 511,-0.00021500,-0.00000946,-0.00021091,-0.00000760,0.00002667,-0.0000
 1399,0.00003132,-0.00002562,-0.00004345,-0.00000271,-0.00004112,-0.000
 01866,-0.00000150,-0.00006883,0.00010334,0.00000048,0.00006982,-0.0000
 2544,0.00000636,0.00002607,0.00003012,-0.00001033,0.00003207,0.0003376
 4,0.00064212,0.00011627,-0.00083517,0.00027803,0.00113711,-0.00157253,
 -0.00126694,-0.00293295,0.00016538,0.00012740,-0.00000345,0.00002848,-
 0.00012321,-0.00017189,-0.00229803,0.00052065,-0.00024879,-0.00105463,
 0.00018429,-0.00126520,0.00771566,-0.00125784,0.00610433,0.00080854,0.
 00042215,0.01035793,-0.00021228,-0.00028709,-0.00129680,-0.00705480,0.
 00223223,-0.00687027,0.00152918,-0.00055092,-0.00026123,-0.04857675,0.
 01096571,-0.02771333,0.00116625,-0.00274879,0.01033726,0.00306971,-0.0
 0009465,0.00504984,-0.24061354,0.03496692,-0.05793160,0.00039265,-0.00
 005232,0.00004110,-0.00062707,0.00251951,-0.02212198,-0.08802876,0.004
 14237,0.00587151,0.36690689,0.00001663,-0.00000008,0.00001199,-0.00001
 737,0.00000647,0.00001828,0.00002395,-0.00000913,-0.00000937,-0.000052
 25,0.00006765,-0.00000073,0.00004878,0.00000491,-0.00000546,0.00000202
 ,-0.00000723,0.00000529,0.00000969,-0.00000059,0.00000962,0.00000404,-
 0.00000126,0.00001594,-0.00002416,-0.00000179,-0.00001067,0.00000577,-
 0.00000376,-0.00000542,-0.00000746,-0.00000081,-0.00000718,-0.00009951
 ,-0.00016488,-0.00004707,0.00017324,-0.00007285,-0.00021862,0.00026498
 ,0.00028678,0.00052503,-0.00004225,-0.00004699,0.00000288,0.00000606,0
 .00002914,0.00003362,0.00053897,-0.00007873,0.00003273,0.00011098,-0.0
 0053169,0.00012899,-0.00182431,-0.00028592,-0.00142280,0.00070029,0.00
 657096,-0.00095859,0.00005321,0.00009262,0.00023974,0.00172702,-0.0013
 5489,0.00116640,-0.00055789,-0.00244098,-0.00010738,0.00953369,0.00799
 531,0.00415769,0.00016170,0.00986969,-0.02785107,-0.00080814,0.0044221
 4,-0.00032504,0.03749381,-0.05129495,0.01696592,0.00005963,0.00016071,
 0.00013310,0.00507075,0.00512879,0.00755705,0.00204618,-0.06007007,0.0
 0962651,-0.05412513,0.08040013,-0.00007022,0.00000565,-0.00005983,0.00
 008267,-0.00002790,-0.00006692,-0.00009834,0.00002819,0.00000863,0.000
 23621,-0.00019436,0.00000538,-0.00020256,0.00000201,0.00002349,-0.0000
 1910,0.00002388,-0.00001820,-0.00004497,-0.00000076,-0.00004200,-0.000
 01717,-0.00000106,-0.00006714,0.00010598,0.00000365,0.00005602,-0.0000
 3193,0.00000782,0.00002367,0.00002565,-0.00000771,0.00003895,0.0003393
 2,0.00058550,0.00019794,-0.00049002,0.00016399,0.00087108,-0.00141510,
 -0.00102304,-0.00236629,0.00006024,0.00017349,-0.00000094,-0.00002285,
 -0.00009675,-0.00015590,-0.00242960,0.00055409,0.00008255,0.00036511,-
 0.00009428,0.00038679,0.00719076,-0.00127206,0.00529569,0.00286621,0.0
 0051007,-0.00381983,-0.00050285,-0.00014002,-0.00106082,-0.00930348,0.
 00222792,-0.00082217,-0.00166280,0.00014490,-0.00035365,-0.00213167,0.
 00009973,0.01192792,0.00413722,-0.00291087,-0.03481273,0.01166079,-0.0
 0131278,-0.00276820,-0.09601935,0.02299783,-0.15505903,-0.00135582,0.0
 0020628,-0.00108488,-0.05354410,0.01198167,-0.04596037,0.03676714,0.00
 463622,-0.21094876,0.10017130,-0.04580160,0.49679307,0.00000439,-0.000
 00042,0.00000390,-0.00000519,0.00000311,0.00000432,0.00000648,-0.00000
 272,-0.00000104,-0.00001440,0.00001606,-0.00000091,0.00001368,-0.00000
 038,-0.00000189,0.00000161,-0.00000067,0.00000154,0.00000289,-0.000000
 31,0.00000280,0.00000101,-0.00000043,0.00000440,-0.00000711,-0.0000004
 3,-0.00000365,0.00000196,-0.00000099,-0.00000155,-0.00000177,-0.000000
 26,-0.00000238,-0.00002185,-0.00004000,-0.00001618,0.00004789,-0.00001
 480,-0.00007036,0.00011629,0.00009304,0.00018334,-0.00001063,-0.000012
 43,-0.00000118,0.00000041,0.00000774,0.00001168,0.00013287,-0.00003019
 ,0.00000867,0.00002929,0.00003997,0.00000999,-0.00045861,0.00011687,-0
 .00031592,-0.00038889,-0.00034765,-0.00082442,0.00001974,0.00001639,0.
 00006617,0.00007380,-0.00015884,0.00072474,-0.00058002,0.00117411,-0.0
 0088414,0.00044035,0.00014646,0.00092579,0.00714442,0.00951703,-0.0033
 8738,0.00039512,-0.00007152,-0.00002778,0.00019947,0.00137431,-0.00089
 311,0.00001430,0.00001302,0.00002228,-0.00002179,-0.00022357,-0.000100
 01,-0.14433990,-0.11798896,0.03592654,0.00225154,0.00088582,0.00583370
 ,0.15005103,0.00000076,0.00000100,0.00000049,-0.00000086,0.00000011,0.
 00000021,0.00000078,0.00000068,0.00000063,-0.00000097,0.00000353,0.000
 00038,0.00000068,0.00000210,-0.00000020,0.00000030,-0.00000106,-0.0000
 0023,0.00000026,-0.00000035,0.00000040,-0.00000002,-0.00000040,0.00000
 020,-0.00000099,-0.00000075,0.00000004,0.00000064,-0.00000075,0.000000
 11,0.00000027,-0.00000042,-0.00000056,-0.00000220,-0.00000717,-0.00000
 361,0.00000598,-0.00000190,-0.00000437,0.00003728,0.00002024,0.0000327
 5,-0.00000074,-0.00000176,0.00000076,-0.00000068,0.00000030,0.00000337
 ,0.00005689,-0.00000208,-0.00002797,0.00003705,-0.00000892,0.00003377,
 -0.00017641,0.00003277,-0.00010612,0.00020027,0.00000813,-0.00041039,0
 .00000603,0.00001179,-0.00001377,0.00024695,-0.00009082,-0.00001195,0.
 00065009,-0.00042334,-0.00034650,-0.00035890,0.00000388,0.00088859,-0.
 01745795,-0.01940452,0.00591568,-0.00030073,0.00004926,-0.00018364,-0.
 00222774,0.00077454,-0.00120660,0.00001181,0.00000634,0.00000882,0.000
 44685,-0.00022389,0.00054755,-0.11673139,-0.20256156,0.04603966,0.0024
 0605,0.00419909,0.00685477,0.12890917,0.21173149,-0.00000446,0.0000001
 5,-0.00000331,0.00000476,-0.00000247,-0.00000433,-0.00000530,0.0000027
 1,0.00000109,0.00001321,-0.00001315,-0.00000026,-0.00001122,-0.0000009
 6,0.00000123,-0.00000072,0.00000147,-0.00000105,-0.00000256,0.00000009
 ,-0.00000244,-0.00000097,0.00000017,-0.00000391,0.00000582,0.00000086,
 0.00000385,-0.00000174,0.00000076,0.00000137,0.00000154,-0.00000006,0.
 00000218,0.00002493,0.00003799,0.00000846,-0.00002883,0.00001459,0.000
 04216,-0.00006448,-0.00007919,-0.00012701,0.00000589,0.00001136,-0.000
 00268,-0.00000251,-0.00000586,-0.00000982,-0.00015794,0.00002445,-0.00
 000047,-0.00003322,0.00002382,-0.00002189,0.00041983,0.00002967,0.0003
 5573,-0.00035038,-0.00023132,-0.00039641,-0.00002741,-0.00001790,-0.00
 006397,-0.00084774,0.00017041,0.00024164,-0.00064092,0.00091398,-0.000
 18157,-0.00096088,-0.00014936,0.00074989,-0.00742347,-0.00773799,0.005
 58493,0.00094776,-0.00046578,0.00024981,0.00702116,0.00029910,0.004504
 01,0.00000159,0.00007357,-0.00002826,-0.00096159,-0.00052152,-0.001883
 07,0.03184457,0.04207940,-0.06210313,0.01973884,0.02854058,-0.03021381
 ,-0.04398045,-0.05527676,0.07875788,-0.00000407,-0.00000011,-0.0000031
 9,0.00000469,-0.00000109,-0.00000416,-0.00000528,0.00000083,0.00000104
 ,0.00001305,-0.00001011,-0.00000045,-0.00001199,-0.00000162,0.00000118
 ,-0.00000110,0.00000232,-0.00000115,-0.00000280,-0.00000004,-0.0000024
 7,-0.00000100,-0.00000003,-0.00000409,0.00000608,0.00000039,0.00000319
 ,-0.00000161,0.00000042,0.00000156,0.00000165,-0.00000036,0.00000225,0
 .00001651,0.00003308,0.00001509,-0.00002283,0.00000666,0.00004554,-0.0
 0005643,-0.00005130,-0.00011036,0.00000292,0.00000896,0.00000125,-0.00
 000202,-0.00000623,-0.00000578,-0.00008550,0.00002106,-0.00002340,0.00
 002005,0.00000057,0.00001672,0.00025622,-0.00003564,0.00020586,0.00022
 563,0.00001187,-0.00005199,-0.00001825,-0.00000375,-0.00006966,-0.0000
 9960,0.00003736,-0.00022424,0.00015938,-0.00006488,-0.00052447,-0.0004
 1545,0.00008001,0.00047562,-0.00757390,0.00037391,-0.00205902,-0.00009
 450,0.00002272,-0.00004867,0.00176353,-0.00032657,0.00181085,0.0000123
 7,-0.00000639,0.00000215,0.00013193,0.00000753,0.00007342,-0.29694020,
 0.04461744,-0.08127435,0.00595329,-0.00087840,0.00005237,-0.01509464,0
 .00423094,-0.00450386,0.31187463,0.00000057,-0.00000055,0.00000085,-0.
 00000083,0.00000076,0.00000043,0.00000055,-0.00000287,0.00000059,-0.00
 000253,0.00000608,-0.00000021,0.00000271,-0.00000021,-0.00000044,0.000
 00029,-0.00000112,0.00000033,0.00000061,0.00000030,0.00000049,0.000000
 27,0.00000034,0.00000079,-0.00000104,0.00000054,-0.00000071,0.00000052
 ,0.00000013,-0.00000035,-0.00000022,0.00000071,-0.00000059,-0.00000152
 ,-0.00001090,-0.00000157,-0.00000110,0.00000005,-0.00000597,0.00000708
 ,0.00000520,0.00001352,0.00000105,-0.00000094,0.,-0.00000008,0.0000008
 1,0.00000106,0.00002055,-0.00000546,0.00000250,0.00000637,0.00003165,0
 .00000239,-0.00005740,-0.00000619,-0.00004517,0.00002644,0.00021822,0.
 00000291,0.00000625,0.00000377,0.00001782,0.00001800,-0.00009310,0.000
 02952,-0.00009106,-0.00044828,0.00000384,0.00005421,0.00029950,-0.0000
 0110,0.02635223,-0.00292866,0.00853357,-0.00002540,-0.00000526,0.00003
 150,-0.00041034,0.00058672,0.00006805,0.00000131,-0.00004172,-0.000000
 29,0.00014322,0.00022554,0.00006055,0.04366803,-0.05971307,0.01392632,
 0.00175884,0.00005649,0.00200316,-0.02340537,0.00589880,-0.00793222,-0
 .04807361,0.05590315,-0.00000314,0.00000057,-0.00000285,0.00000372,-0.
 00000092,-0.00000267,-0.00000425,0.00000002,0.00000033,0.00001094,-0.0
 0000828,0.00000062,-0.00000932,0.00000196,0.00000137,-0.00000091,0.000
 00003,-0.00000079,-0.00000186,0.,-0.00000176,-0.00000084,-0.00000001,-
 0.00000300,0.00000478,0.00000052,0.00000244,-0.00000129,0.00000030,0.0
 0000094,0.00000139,-0.00000035,0.00000152,0.00001475,0.00002473,0.0000
 1042,-0.00001714,0.00000656,0.00003601,-0.00005485,-0.00003999,-0.0000
 9799,0.00000183,0.00000978,0.00000170,-0.00000270,-0.00000365,-0.00000
 649,-0.00010626,0.00002499,0.00000052,-0.00004513,0.00001438,-0.000047
 26,0.00029086,-0.00005095,0.00023772,-0.00033192,0.00006377,0.00032428
 ,-0.00003045,-0.00000374,-0.00004172,-0.00020039,0.00005088,0.00002135
 ,-0.00012214,-0.00005579,0.00070023,0.00083351,-0.00007670,-0.00075768
 ,0.01065902,-0.00059608,0.00566250,0.00052709,-0.00005577,-0.00040155,
 0.00306117,-0.00011838,-0.00462825,-0.00012356,0.00001485,-0.00007771,
 -0.00182539,0.00033677,-0.00077336,-0.06773391,0.01177842,-0.06646637,
 -0.03787167,0.00803539,-0.02856674,0.00679945,-0.00262868,0.00434234,0
 .08623181,-0.01671839,0.09054218,-0.00000429,-0.00000037,-0.00000131,0
 .00000609,0.00000023,-0.00000818,-0.00000088,-0.00000156,0.00001404,0.
 00001389,-0.00002536,-0.00000475,-0.00001581,-0.00000410,0.00000121,0.
 00000137,0.00000372,-0.00000483,-0.00000188,-0.00000018,-0.00000265,-0
 .00000136,0.00000018,-0.00000420,0.00000472,0.00000294,0.00000980,0.00
 000107,0.00000057,0.00000254,0.00000339,-0.00000066,-0.00000160,0.0000
 4203,0.00005514,0.00000160,-0.00018054,0.00004721,0.00012517,-0.000021
 88,-0.00021496,-0.00033277,0.00004005,0.00000277,-0.00000415,0.0000146
 5,-0.00001913,-0.00001865,-0.00038947,0.00009423,-0.00009087,-0.000076
 71,-0.00008114,0.00004241,0.00009037,0.00021159,0.00107006,0.00049372,
 -0.00017037,-0.00039133,0.00002575,-0.00000056,-0.00016446,-0.00131931
 ,0.00142300,-0.00358055,-0.00007368,0.00002318,-0.00019256,0.00110997,
 0.00049135,0.00059929,-0.00000531,-0.00000527,-0.00007176,-0.01703726,
 0.00194443,0.01049731,-0.00160359,0.00098813,-0.00094793,0.00085271,-0
 .00079241,-0.00011620,-0.29681730,0.02970706,0.10246900,0.00022781,-0.
 00011855,0.00010303,0.00063143,-0.00051393,-0.00049642,-0.00000590,0.0
 0001110,-0.00001667,-0.00000848,0.00000083,0.00004800,0.31401956,0.000
 00099,-0.00000024,0.00000202,-0.00000256,-0.00000432,0.00000041,0.0000
 0254,0.00000679,0.00000039,-0.00000312,-0.00001229,-0.00000078,0.00000
 149,-0.00000434,-0.00000035,0.00000163,-0.00000135,-0.00000061,0.00000
 091,0.00000091,0.00000059,0.00000041,0.00000179,0.00000077,-0.00000214
 ,0.00000083,0.00000076,0.00000102,0.00000104,-0.00000038,0.00000018,0.
 00000382,-0.00000126,0.00001243,0.00000765,0.00002366,-0.00000993,0.00
 001151,-0.00002206,0.00001287,0.00001458,0.00015802,0.00001401,0.00001
 845,0.00001080,-0.00001062,0.00000004,0.00001276,-0.00008541,-0.000196
 62,-0.00000831,-0.00010263,-0.00065822,-0.00004432,0.00009114,0.000686
 42,-0.00036701,-0.00005174,-0.00085187,0.00019020,0.00003423,-0.000009
 31,0.00004192,0.00185495,0.00685430,0.00126272,-0.00011845,0.00001770,
 0.00006185,0.00054088,0.00478402,0.00070757,0.00000978,0.00000727,-0.0
 0022251,0.00416294,0.00194148,-0.00223634,-0.00151655,0.00477724,0.000
 70496,-0.00082673,-0.00445101,-0.00067962,0.02955719,-0.03740746,-0.00
 880005,-0.00010726,-0.00061822,-0.00009704,-0.00040546,-0.00294368,-0.
 00026620,-0.00001592,-0.00001381,0.00021473,0.00000760,0.00001815,-0.0
 0000333,-0.03304884,0.02801563,-0.00000028,0.00000085,0.00000193,0.000
 00176,0.00000010,-0.00000513,0.00000290,-0.00000156,0.00001157,0.00000
 119,-0.00000609,-0.00000586,-0.00000313,0.00000194,0.00000069,0.000002
 81,-0.00000105,-0.00000232,0.00000092,-0.00000012,0.,-0.00000029,-0.00
 000006,-0.00000011,-0.00000152,0.00000137,0.00000568,0.00000244,0.0000
 0009,0.00000088,0.00000126,-0.00000057,-0.00000324,0.00000642,0.000003
 27,-0.00001042,-0.00010206,0.00001698,0.00005568,0.00006109,-0.0001101
 7,-0.00017564,0.00001565,-0.00001472,-0.00000034,0.00001455,-0.0000086
 4,-0.00001103,-0.00032219,0.00010178,-0.00005996,-0.00000624,-0.000056
 17,0.00007678,-0.00045258,0.00017110,0.00067296,-0.00081487,0.00015166
 ,-0.00108037,0.00008445,0.00000145,-0.00007086,-0.00316174,0.00112571,
 -0.00143044,0.00149792,-0.00023134,-0.00043367,-0.00054042,0.00089534,
 -0.00578647,0.00000849,0.00008118,0.00017767,-0.01890639,0.00199191,0.
 01120813,0.03065025,-0.00346083,-0.00682219,0.00031061,-0.00051918,0.0
 0093773,0.10050103,-0.00890672,-0.10074245,-0.00029554,-0.00000795,-0.
 00021368,0.00000521,-0.00046924,0.00263810,-0.00002403,-0.00010652,0.0
 0020745,-0.00002313,0.00000590,-0.00000567,-0.10850150,0.00935492,0.10
 088657,0.00035935,-0.00008812,-0.00027795,-0.00063276,0.00052697,0.001
 46839,-0.00326162,-0.00019332,-0.00464274,-0.02367737,0.00296148,0.016
 67687,0.00085009,0.00038124,0.00274762,-0.00012189,0.00006703,-0.00052
 514,0.00006006,-0.00004963,-0.00009047,-0.00001262,-0.00000891,-0.0000
 1471,0.00024121,-0.00010137,-0.00003580,-0.00040135,-0.00001224,-0.000
 27710,0.00066318,-0.00035739,-0.00140244,-0.20615189,0.01619012,0.1301
 7143,-0.00046454,0.00081063,-0.00124873,0.00143240,0.00012251,-0.00094
 260,0.00106593,-0.00013362,-0.00062058,-0.00006345,-0.00009402,0.00020
 396,0.00076584,0.00008505,-0.00068761,0.00003947,-0.00000411,0.0000335
 4,0.00020814,-0.00167591,-0.00065839,-0.00011277,0.00000001,0.00004732
 ,0.00460244,-0.00038996,-0.00549223,0.00003327,0.00024090,-0.00001990,
 -0.00000717,-0.00000200,-0.00000620,-0.00002798,-0.00000960,-0.0000011
 6,0.00000338,-0.00000029,-0.00000178,0.00007029,-0.00002390,-0.0001470
 7,0.00005983,-0.00000531,0.00002382,-0.00001788,0.00001769,0.00002817,
 -0.00006878,-0.00000156,0.00000469,0.00000232,-0.00000102,0.00002088,-
 0.00006360,0.00001358,-0.00003633,0.00000218,-0.00000056,-0.00000258,-
 0.00000229,0.00000056,-0.00000120,-0.00001491,0.00000016,-0.00001301,0
 .22464347,0.00002870,0.00004681,-0.00007613,0.00017362,-0.00001694,0.0
 0001058,0.00047442,0.00139372,0.00058984,0.00450030,0.00159150,-0.0021
 1159,-0.00071075,-0.00041124,-0.00037856,0.00001563,-0.00010825,-0.000
 02954,-0.00001370,0.00003320,0.00000451,-0.00003032,-0.00002798,-0.000
 01097,-0.00006670,-0.00009131,-0.00000317,0.00001914,-0.00015971,0.000
 05222,-0.00007853,0.00039106,0.00014489,0.02234899,-0.04433202,-0.0122
 5545,-0.01752400,0.00502097,0.01643027,-0.00062031,-0.00185967,0.00654
 088,0.00006401,0.00112238,0.00022690,0.00006653,-0.00036245,-0.0008660
 0,0.00084471,0.00076695,-0.00090807,0.00004506,-0.00000981,0.00002713,
 -0.00043009,-0.00699467,-0.00030745,-0.00000421,0.00007626,0.00008158,
 0.00933809,-0.00612110,-0.01950875,-0.00002827,0.00041477,0.00002809,-
 0.00000510,-0.00001393,-0.00000606,-0.00004810,-0.00002351,-0.00000512
 ,0.00000544,-0.00000057,-0.00000251,-0.00011207,0.00001333,-0.00002493
 ,0.00005843,-0.00001307,0.00003678,0.00005606,0.00003931,-0.00004588,-
 0.00002544,-0.00006033,-0.00006930,0.00000215,0.00000318,0.00003216,-0
 .00006755,0.00001939,-0.00006141,0.00000275,-0.00000055,-0.00000532,-0
 .00000356,0.00000142,-0.00000288,-0.00001028,0.00000314,-0.00000459,-0
 .01826509,0.04966970,-0.00007319,-0.00004043,0.00006208,-0.00060804,0.
 00012759,0.00044122,-0.00236452,0.00023376,-0.00201029,-0.01365898,0.0
 0195072,0.00911239,-0.00310463,0.00046067,0.00051108,0.00011011,-0.000
 15108,0.00012870,0.00002552,0.00004156,-0.00002395,0.00002518,0.000029
 01,-0.00000373,0.00001225,-0.00000657,-0.00004618,-0.00020617,0.000010
 62,-0.00012321,0.00005199,0.00007439,-0.00029596,0.13457720,-0.0113830
 8,-0.15198383,0.01385281,-0.00304516,-0.01271605,0.00013032,0.00272163
 ,-0.00352921,-0.00053982,-0.00036134,0.00009032,-0.00004472,0.00050471
 ,-0.00000949,0.00050458,-0.00006512,-0.00063601,0.00003456,-0.00001544
 ,0.00004631,0.00069915,0.00004928,0.00023575,-0.00008739,0.00003442,0.
 00013104,0.00523731,-0.00368412,-0.00936886,-0.00014967,0.00000023,-0.
 00011458,-0.00001052,-0.00000278,-0.00001047,-0.00009947,0.00001217,0.
 00001469,0.00000684,-0.00000055,-0.00000488,0.00010240,0.00004069,-0.0
 0024286,0.00013403,-0.00002111,0.00004798,-0.00001711,-0.00002797,-0.0
 0009746,-0.00008243,0.00000377,-0.00004677,0.00000352,-0.00000353,0.00
 005365,-0.00015158,0.00003348,-0.00010107,0.00000708,-0.00000033,-0.00
 000664,-0.00000550,0.00000090,-0.00000462,-0.00003014,0.00000113,-0.00
 002195,-0.13428096,0.01247786,0.17052285\\0.00000181,-0.00000053,-0.00
 000199,0.00000025,-0.00000027,0.00000199,-0.00000098,-0.00000174,0.000
 00142,0.00000231,0.00000090,0.00000108,0.00000066,0.00000146,0.0000001
 6,-0.00000109,0.00000119,-0.00000018,-0.00000037,-0.00000062,0.0000000
 9,0.00000033,0.00000085,-0.00000022,0.00000146,-0.00000133,0.00000071,
 -0.00000022,-0.00000179,-0.00000057,-0.00000010,0.00000156,0.,-0.00000
 187,-0.00000088,-0.00000091,0.00000706,-0.00000081,0.00000310,-0.00001
 019,0.00000463,-0.00000617,0.00000112,0.00000066,-0.00000190,0.0000022
 8,-0.00000049,0.00000116,-0.00000192,-0.00000310,0.00000102,-0.0000002
 2,-0.00000053,-0.00000066,0.00000161,-0.00000508,0.00000185,-0.0000010
 6,0.,0.00000146,-0.00000209,0.00000336,-0.00000155,0.00000037,0.000001
 42,0.00000007,-0.00000044,-0.00000147,-0.00000095,-0.00000360,0.000001
 08,-0.00000172,-0.00000009,-0.00000078,0.00000055,0.00000259,-0.000003
 41,0.00000047,0.00000282,-0.00000164,-0.00000035,-0.00000082,0.0000030
 3,0.00000105,-0.00000239,-0.00000065,-0.00000069,0.00000233,-0.0000001
 7,0.00000059,-0.00000012,0.00000248,0.00000165,0.00000056,-0.00000067,
 -0.00000046,0.00000003,-0.00000032,0.00000008,0.00000055,0.00000224,0.
 00000061,-0.00000057,0.00000142,-0.00000079\\\@
 The archive entry for this job was punched.


 Just remember, when you're over the hill, you begin to pick up speed.
 -- Charles Schulz
 Job cpu time:       0 days  3 hours 28 minutes 36.5 seconds.
 Elapsed time:       0 days  0 hours 13 minutes  5.4 seconds.
 File lengths (MBytes):  RWF=    760 Int=      0 D2E=      0 Chk=     19 Scr=      1
 Normal termination of Gaussian 16 at Fri May  9 14:29:55 2025.
