 Entering Gaussian System, Link 0=g16
 Initial command:
 /opt/packages/gaussian/g16RevC.01/g16/l1.exe "/ocean/projects/che200051p/zlab/tmp/Gau-52353.inp" -scrdir="/ocean/projects/che200051p/zlab/tmp/"
 Entering Link 1 = /opt/packages/gaussian/g16RevC.01/g16/l1.exe PID=     52354.
  
 Copyright (c) 1988-2019, Gaussian, Inc.  All Rights Reserved.
  
 This is part of the Gaussian(R) 16 program.  It is based on
 the Gaussian(R) 09 system (copyright 2009, Gaussian, Inc.),
 the Gaussian(R) 03 system (copyright 2003, Gaussian, Inc.),
 the Gaussian(R) 98 system (copyright 1998, Gaussian, Inc.),
 the Gaussian(R) 94 system (copyright 1995, Gaussian, Inc.),
 the Gaussian 92(TM) system (copyright 1992, Gaussian, Inc.),
 the Gaussian 90(TM) system (copyright 1990, Gaussian, Inc.),
 the Gaussian 88(TM) system (copyright 1988, Gaussian, Inc.),
 the Gaussian 86(TM) system (copyright 1986, Carnegie Mellon
 University), and the Gaussian 82(TM) system (copyright 1983,
 Carnegie Mellon University). Gaussian is a federally registered
 trademark of Gaussian, Inc.
  
 This software contains proprietary and confidential information,
 including trade secrets, belonging to Gaussian, Inc.
  
 This software is provided under written license and may be
 used, copied, transmitted, or stored only in accord with that
 written license.
  
 The following legend is applicable only to US Government
 contracts under FAR:
  
                    RESTRICTED RIGHTS LEGEND
  
 Use, reproduction and disclosure by the US Government is
 subject to restrictions as set forth in subparagraphs (a)
 and (c) of the Commercial Computer Software - Restricted
 Rights clause in FAR 52.227-19.
  
 Gaussian, Inc.
 340 Quinnipiac St., Bldg. 40, Wallingford CT 06492
  
  
 ---------------------------------------------------------------
 Warning -- This program may not be used in any manner that
 competes with the business of Gaussian, Inc. or will provide
 assistance to any competitor of Gaussian, Inc.  The licensee
 of this program is prohibited from giving any competitor of
 Gaussian, Inc. access to this program.  By using this program,
 the user acknowledges that Gaussian, Inc. is engaged in the
 business of creating and licensing software in the field of
 computational chemistry and represents and warrants to the
 licensee that it is not a competitor of Gaussian, Inc. and that
 it will not use this program in any manner prohibited above.
 ---------------------------------------------------------------
  

 Cite this work as:
 Gaussian 16, Revision C.01,
 M. J. Frisch, G. W. Trucks, H. B. Schlegel, G. E. Scuseria, 
 M. A. Robb, J. R. Cheeseman, G. Scalmani, V. Barone, 
 G. A. Petersson, H. Nakatsuji, X. Li, M. Caricato, A. V. Marenich, 
 J. Bloino, B. G. Janesko, R. Gomperts, B. Mennucci, H. P. Hratchian, 
 J. V. Ortiz, A. F. Izmaylov, J. L. Sonnenberg, D. Williams-Young, 
 F. Ding, F. Lipparini, F. Egidi, J. Goings, B. Peng, A. Petrone, 
 T. Henderson, D. Ranasinghe, V. G. Zakrzewski, J. Gao, N. Rega, 
 G. Zheng, W. Liang, M. Hada, M. Ehara, K. Toyota, R. Fukuda, 
 J. Hasegawa, M. Ishida, T. Nakajima, Y. Honda, O. Kitao, H. Nakai, 
 T. Vreven, K. Throssell, J. A. Montgomery, Jr., J. E. Peralta, 
 F. Ogliaro, M. J. Bearpark, J. J. Heyd, E. N. Brothers, K. N. Kudin, 
 V. N. Staroverov, T. A. Keith, R. Kobayashi, J. Normand, 
 K. Raghavachari, A. P. Rendell, J. C. Burant, S. S. Iyengar, 
 J. Tomasi, M. Cossi, J. M. Millam, M. Klene, C. Adamo, R. Cammi, 
 J. W. Ochterski, R. L. Martin, K. Morokuma, O. Farkas, 
 J. B. Foresman, and D. J. Fox, Gaussian, Inc., Wallingford CT, 2019.
 
 ******************************************
 Gaussian 16:  ES64L-G16RevC.01  3-Jul-2019
                23-May-2025 
 ******************************************
 %NProcShared=16
 Will use up to   16 processors via shared memory.
 %Chk=SBn_cis_NMR.chk
 ----------------------------------------------------------------------
 #n nmr=giao wb97xd/aug-cc-pvdz scrf=(cpcm,solvent=Chloroform) integral
 =(acc2e=14,grid=superfinegrid)
 ----------------------------------------------------------------------
 1/38=1,172=1/1;
 2/12=2,17=6,18=5,40=1/2;
 3/5=16,7=10,11=2,25=1,27=14,30=1,70=2101,72=7,74=-58,75=-7/1,2,3,8;
 4//1;
 5/5=2,38=5,53=7,87=14/2;
 8/6=1,10=90,11=11,87=14/1;
 10/13=100,45=16,87=14/2;
 6/7=2,8=2,9=2,10=2,28=1,87=14/1;
 99/9=1/99;
 -----------
 SBn cis NMR
 -----------
 Symbolic Z-matrix:
 Charge =  0 Multiplicity = 1
 C                     5.80486  -1.92903  -0.29745 
 C                     4.54162  -2.52598  -0.23603 
 C                     3.3995   -1.73977  -0.08013 
 C                     3.50178  -0.34273   0.01833 
 C                     4.77229   0.24576  -0.05172 
 C                     5.91719  -0.54036  -0.20626 
 H                     6.69264  -2.54224  -0.42094 
 H                     6.89276  -0.06609  -0.25903 
 H                     2.42203  -2.21275  -0.05414 
 H                     4.44522  -3.60499  -0.31455 
 H                     4.86523   1.32675   0.01303 
 C                     2.28773   0.53389   0.2243 
 C                     1.54711   0.25649   1.54237 
 O                     0.25338   0.88264   1.55165 
 H                     2.10922   0.66508   2.38762 
 H                     1.40924  -0.82021   1.68782 
 S                    -0.49725   3.31785  -0.1144 
 H                    -1.21202  -1.34807   0.81285 
 P                    -0.3974    1.38631   0.11764 
 C                    -2.08272  -0.82812   0.42693 
 S                     1.00884   0.32477  -1.11809 
 C                    -1.97888   0.50826   0.01944 
 H                    -3.3483   -2.54068   0.68032 
 C                    -3.29721  -1.50982   0.35165 
 H                    -5.20473  -3.44776  -0.45778 
 C                    -3.1217    1.15973  -0.47654 
 C                    -4.43088  -0.8487   -0.14684 
 H                    -3.05171   2.1977   -0.7854 
 C                    -4.3346    0.49005  -0.56019 
 C                    -5.83562  -2.77374   0.13411 
 O                    -5.66052  -1.41743  -0.26629 
 H                    -5.61714  -2.90496   1.20071 
 H                    -6.88519  -3.00268  -0.05193 
 H                    -5.22309   0.98393  -0.93919 
 H                     2.59565   1.5831    0.20123 
 
                          Input orientation:                          
 ---------------------------------------------------------------------
 Center     Atomic      Atomic             Coordinates (Angstroms)
 Number     Number       Type             X           Y           Z
 ---------------------------------------------------------------------
      1          6           0        5.804860   -1.929030   -0.297450
      2          6           0        4.541620   -2.525980   -0.236030
      3          6           0        3.399500   -1.739770   -0.080130
      4          6           0        3.501780   -0.342730    0.018330
      5          6           0        4.772290    0.245760   -0.051720
      6          6           0        5.917190   -0.540360   -0.206260
      7          1           0        6.692640   -2.542240   -0.420940
      8          1           0        6.892760   -0.066090   -0.259030
      9          1           0        2.422030   -2.212750   -0.054140
     10          1           0        4.445220   -3.604990   -0.314550
     11          1           0        4.865230    1.326750    0.013030
     12          6           0        2.287730    0.533890    0.224300
     13          6           0        1.547110    0.256490    1.542370
     14          8           0        0.253380    0.882640    1.551650
     15          1           0        2.109220    0.665080    2.387620
     16          1           0        1.409240   -0.820210    1.687820
     17         16           0       -0.497250    3.317850   -0.114400
     18          1           0       -1.212020   -1.348070    0.812850
     19         15           0       -0.397400    1.386310    0.117640
     20          6           0       -2.082720   -0.828120    0.426930
     21         16           0        1.008840    0.324770   -1.118090
     22          6           0       -1.978880    0.508260    0.019440
     23          1           0       -3.348300   -2.540680    0.680320
     24          6           0       -3.297210   -1.509820    0.351650
     25          1           0       -5.204730   -3.447760   -0.457780
     26          6           0       -3.121700    1.159730   -0.476540
     27          6           0       -4.430880   -0.848700   -0.146840
     28          1           0       -3.051710    2.197700   -0.785400
     29          6           0       -4.334600    0.490050   -0.560190
     30          6           0       -5.835620   -2.773740    0.134110
     31          8           0       -5.660520   -1.417430   -0.266290
     32          1           0       -5.617140   -2.904960    1.200710
     33          1           0       -6.885190   -3.002680   -0.051930
     34          1           0       -5.223090    0.983930   -0.939190
     35          1           0        2.595650    1.583100    0.201230
 ---------------------------------------------------------------------
                    Distance matrix (angstroms):
                    1          2          3          4          5
     1  C    0.000000
     2  C    1.398534   0.000000
     3  C    2.422561   1.395303   0.000000
     4  C    2.814292   2.431573   1.404235   0.000000
     5  C    2.419978   2.787422   2.414061   1.401935   0.000000
     6  C    1.396187   2.415733   2.791640   2.433866   1.397377
     7  H    1.086015   2.159014   3.406594   3.900306   3.405439
     8  H    2.157672   3.402859   3.877638   3.413532   2.153281
     9  H    3.403415   2.150316   1.086201   2.160576   3.401176
    10  H    2.158183   1.086150   2.151169   3.412218   3.873542
    11  H    3.402853   3.874311   3.400086   2.155502   1.086908
    12  C    4.325321   3.828149   2.549165   1.511557   2.516395
    13  C    5.127365   4.457795   3.170001   2.549999   3.597641
    14  O    6.491809   5.762247   4.408833   3.795353   4.837040
    15  H    5.253262   4.794056   3.679391   2.927190   3.635677
    16  H    4.948965   4.052487   2.816447   2.719174   3.933497
    17  S    8.202429   7.717212   6.384775   5.423071   6.099977
    18  H    7.127895   5.965903   4.713487   4.884862   6.252979
    19  P    7.044985   6.310706   4.922188   4.266503   5.296719
    20  C    7.996915   6.870526   5.580587   5.620427   6.955105
    21  S    5.362357   4.624429   3.324897   2.819886   3.912409
    22  C    8.162561   7.196443   5.830139   5.546334   6.756646
    23  H    9.225535   7.942969   6.837583   7.224459   8.616502
    24  C    9.134810   7.926235   6.714554   6.906480   8.268107
    25  H   11.115004   9.792354   8.780241   9.255874  10.646497
    26  C    9.447539   8.506984   7.147747   6.809755   7.958071
    27  C   10.293696   9.128361   7.881200   7.950496   9.268507
    28  H    9.782987   8.959555   7.590730   7.074461   8.097119
    29  C   10.427350   9.380234   8.063427   7.901712   9.124345
    30  C   11.679065  10.386794   9.295291   9.649365  11.030851
    31  O   11.476831  10.262235   9.067663   9.229503  10.566729
    32  H   11.561099  10.266852   9.181395   9.545562  10.928672
    33  H   12.737754  11.438231  10.361978  10.722379  12.101620
    34  H   11.424222  10.400167   9.083258   8.876949  10.061815
    35  H    4.783594   4.567552   3.430277   2.136199   2.567143
                    6          7          8          9         10
     6  C    0.000000
     7  H    2.157530   0.000000
     8  H    1.086026   2.489494   0.000000
     9  H    3.877650   4.298978   4.963623   0.000000
    10  H    3.401526   2.488303   4.303179   2.469705   0.000000
    11  H    2.154253   4.300795   2.474853   4.301372   4.960421
    12  C    3.809511   5.411298   4.669035   2.763982   4.698452
    13  C    4.773916   6.177698   5.650228   3.067813   5.172835
    14  O    6.098682   7.555461   6.946943   4.106464   6.418181
    15  H    4.762555   6.259605   5.515580   3.787076   5.567056
    16  H    4.897700   5.943616   5.867530   2.449354   4.580574
    17  S    7.485938   9.280579   8.129220   6.254068   8.508454
    18  H    7.246835   8.089001   8.275256   3.834796   6.194278
    19  P    6.609918   8.123561   7.442968   4.575142   6.967843
    20  C    8.030087   8.981316   9.033851   4.737236   7.132657
    21  S    5.066733   6.404010   5.959133   3.093235   5.281799
    22  C    7.968592   9.202975   8.894572   5.174680   7.635407
    23  H    9.520326  10.101151  10.577584   5.826120   7.928523
    24  C    9.282041  10.072730  10.309839   5.776546   8.048527
    25  H   11.498406  11.931837  12.562820   7.736643   9.652294
    26  C    9.201353  10.489468  10.091549   6.502691   8.943549
    27  C   10.352833  11.255039  11.351206   6.987961   9.295720
    28  H    9.395400  10.842150  10.212458   7.067435   9.491937
    29  C   10.309520  11.437403  11.245159   7.294742   9.690972
    30  C   11.967973  12.542686  13.019124   8.278824  10.324144
    31  O   11.611039  12.405228  12.625807   8.124356  10.339910
    32  H   11.857979  12.421433  12.910756   8.165908  10.199860
    33  H   13.037936  13.590645  14.088945   9.340682  11.349447
    34  H   11.267941  12.437326  12.180270   8.333663  10.720288
    35  H    3.963301   5.847294   4.625670   3.808390   5.532017
                   11         12         13         14         15
    11  H    0.000000
    12  C    2.704953   0.000000
    13  C    3.807132   1.537133   0.000000
    14  O    4.881982   2.453990   1.437319   0.000000
    15  H    3.697577   2.174633   1.094240   2.047027   0.000000
    16  H    4.399798   2.178812   1.095193   2.062584   1.784875
    17  S    5.721618   3.952375   4.036858   3.044572   4.482296
    18  H    6.687850   4.017016   3.274082   2.769348   4.190860
    19  P    5.264007   2.819205   2.662230   1.653355   3.457763
    20  C    7.286205   4.582244   3.949209   3.106293   4.862747
    21  S    4.141876   1.865825   2.715225   2.830097   3.690074
    22  C    6.892881   4.271602   3.849066   2.733279   4.727095
    23  H    9.102987   6.436285   5.703712   5.044842   6.555631
    24  C    8.647903   5.948489   5.291985   4.446409   6.172913
    25  H   11.154448   8.512093   7.956721   7.251285   8.860340
    26  C    8.003663   5.490427   5.166200   3.947341   5.984197
    27  C    9.548602   6.869426   6.309615   5.274912   7.175509
    28  H    8.004623   5.683078   5.507809   4.256149   6.249174
    29  C    9.255567   6.668778   6.250586   5.065921   7.088232
    30  C   11.460230   8.771395   8.103715   7.242545   8.945629
    31  O   10.881174   8.198964   7.617295   6.600715   8.470475
    32  H   11.366531   8.675600   7.838238   6.995147   8.593636
    33  H   12.522801   9.834942   9.179742   8.284103  10.015152
    34  H   10.138957   7.613715   7.247270   6.017164   8.058046
    35  H    2.291752   1.093704   2.158237   2.792939   2.420677
                   16         17         18         19         20
    16  H    0.000000
    17  S    4.899616   0.000000
    18  H    2.813399   4.810561   0.000000
    19  P    3.255479   1.947989   2.936623   0.000000
    20  C    3.712639   4.471669   1.085081   2.799940   0.000000
    21  S    3.056866   3.497746   3.385135   2.152070   3.643348
    22  C    4.003459   3.179141   2.159522   1.811545   1.400979
    23  H    5.158416   6.563721   2.450219   4.944256   2.144472
    24  C    4.940808   5.600301   2.141702   4.105025   1.394764
    25  H    7.433184   8.249349   4.686676   6.841766   4.170392
    26  C    5.397595   3.417070   3.405652   2.797534   2.418116
    27  C    6.121584   5.730152   3.395797   4.618894   2.417331
    28  H    5.926607   2.868840   4.302482   2.918766   3.400628
    29  C    6.305714   4.787529   3.874846   4.094421   2.789792
    30  C    7.662786   8.103544   4.885785   6.846935   4.237386
    31  O    7.359125   7.007518   4.578046   5.975683   3.691679
    32  H    7.345303   8.164934   4.688222   6.843517   4.171825
    33  H    8.751427   8.986589   5.972473   7.834756   5.293556
    34  H    7.358254   5.334888   4.959491   4.956418   3.874498
    35  H    3.064868   3.560198   4.843985   3.000677   5.268023
                   21         22         23         24         25
    21  S    0.000000
    22  C    3.202205   0.000000
    23  H    5.516317   3.407067   0.000000
    24  C    4.905907   2.433311   1.083193   0.000000
    25  H    7.299071   5.126787   2.358898   2.837150   0.000000
    26  C    4.262641   1.405862   3.883646   2.800571   5.056514
    27  C    5.648974   2.807364   2.172319   1.403845   2.729586
    28  H    4.484040   2.157067   4.968757   3.885725   6.050954
    29  C    5.375028   2.426050   3.420084   2.430455   4.034100
    30  C    7.616784   5.065483   2.557230   2.844001   1.096658
    31  O    6.945588   4.164660   2.739365   2.444508   2.089654
    32  H    7.727328   5.126637   2.356086   2.837145   1.793127
    33  H    8.632748   6.033545   3.641322   3.907059   1.785149
    34  H    6.269246   3.416157   4.308193   3.405007   4.457799
    35  H    2.417016   4.702622   7.250216   6.656920   9.305363
                   26         27         28         29         30
    26  C    0.000000
    27  C    2.420009   0.000000
    28  H    1.085207   3.404471   0.000000
    29  C    1.388018   1.404414   2.147695   0.000000
    30  C    4.817722   2.399585   5.771557   3.658885   0.000000
    31  O    3.623750   1.360050   4.488266   2.341564   1.424976
    32  H    5.055897   2.729709   6.046751   4.033828   1.096626
    33  H    5.627593   3.266845   6.502115   4.354653   1.090239
    34  H    2.158886   2.148010   2.492344   1.084884   3.955660
    35  H    5.772929   7.443583   5.765748   7.057116   9.490673
                   31         32         33         34         35
    31  O    0.000000
    32  H    2.089669   0.000000
    33  H    2.014642   1.785107   0.000000
    34  H    2.531930   4.456222   4.409407   0.000000
    35  H    8.796937   9.412309  10.534695   7.924157   0.000000
 Stoichiometry    C15H15O2PS2
 Framework group  C1[X(C15H15O2PS2)]
 Deg. of freedom    99
 Full point group                 C1      NOp   1
 Largest Abelian subgroup         C1      NOp   1
 Largest concise Abelian subgroup C1      NOp   1
                         Standard orientation:                         
 ---------------------------------------------------------------------
 Center     Atomic      Atomic             Coordinates (Angstroms)
 Number     Number       Type             X           Y           Z
 ---------------------------------------------------------------------
      1          6           0        5.804861   -1.929029   -0.297450
      2          6           0        4.541621   -2.525979   -0.236030
      3          6           0        3.399501   -1.739769   -0.080130
      4          6           0        3.501780   -0.342729    0.018330
      5          6           0        4.772290    0.245761   -0.051720
      6          6           0        5.917190   -0.540359   -0.206260
      7          1           0        6.692641   -2.542239   -0.420940
      8          1           0        6.892760   -0.066089   -0.259030
      9          1           0        2.422031   -2.212749   -0.054140
     10          1           0        4.445221   -3.604989   -0.314550
     11          1           0        4.865230    1.326751    0.013030
     12          6           0        2.287730    0.533891    0.224300
     13          6           0        1.547110    0.256490    1.542370
     14          8           0        0.253380    0.882640    1.551650
     15          1           0        2.109220    0.665080    2.387620
     16          1           0        1.409240   -0.820210    1.687820
     17         16           0       -0.497250    3.317850   -0.114400
     18          1           0       -1.212020   -1.348070    0.812850
     19         15           0       -0.397400    1.386310    0.117640
     20          6           0       -2.082720   -0.828120    0.426930
     21         16           0        1.008840    0.324770   -1.118090
     22          6           0       -1.978880    0.508260    0.019440
     23          1           0       -3.348299   -2.540680    0.680320
     24          6           0       -3.297210   -1.509820    0.351650
     25          1           0       -5.204729   -3.447760   -0.457780
     26          6           0       -3.121700    1.159730   -0.476540
     27          6           0       -4.430880   -0.848700   -0.146840
     28          1           0       -3.051710    2.197700   -0.785400
     29          6           0       -4.334600    0.490050   -0.560190
     30          6           0       -5.835619   -2.773740    0.134110
     31          8           0       -5.660520   -1.417430   -0.266290
     32          1           0       -5.617139   -2.904960    1.200710
     33          1           0       -6.885189   -3.002681   -0.051930
     34          1           0       -5.223090    0.983930   -0.939190
     35          1           0        2.595650    1.583101    0.201230
 ---------------------------------------------------------------------
 Rotational constants (GHZ):           0.5084210           0.1280644           0.1082506
 Standard basis: Aug-CC-pVDZ (5D, 7F)
 There are   647 symmetry adapted cartesian basis functions of A   symmetry.
 There are   607 symmetry adapted basis functions of A   symmetry.
   607 basis functions,  1139 primitive gaussians,   647 cartesian basis functions
    84 alpha electrons       84 beta electrons
       nuclear repulsion energy      1884.3069697592 Hartrees.
 NAtoms=   35 NActive=   35 NUniq=   35 SFac= 1.00D+00 NAtFMM=   60 NAOKFM=F Big=F
 Integral buffers will be    131072 words long.
 Raffenetti 2 integral format.
 Two-electron integral symmetry is turned on.
 Nuclear repulsion after empirical dispersion term =     1884.2831080522 Hartrees.
 Force PCM accuracy= 1.00D-14.
 ------------------------------------------------------------------------------
 Polarizable Continuum Model (PCM)
 =================================
 Model                : C-PCM.
 Atomic radii         : UFF (Universal Force Field).
 Polarization charges : Total charges.
 Charge compensation  : None.
 Solution method      : On-the-fly selection.
 Cavity type          : Scaled VdW (van der Waals Surface) (Alpha=1.100).
 Cavity algorithm     : GePol (No added spheres)
                        Default sphere list used, NSphG=   35.
                        Lebedev-Laikov grids with approx.  5.0 points / Ang**2.
                        Smoothing algorithm: York/Karplus (Gamma=1.0000).
                        Polarization charges: spherical gaussians, with
                                              point-specific exponents (IZeta= 3).
                        Self-potential: point-specific (ISelfS= 7).
                        Self-field    : sphere-specific E.n sum rule (ISelfD= 2).
 Solvent              : Chloroform, Eps=   4.711300 Eps(inf)=   2.090627
 ------------------------------------------------------------------------------
 One-electron integrals computed using PRISM.
 NBasis=   607 RedAO= T EigKep=  1.23D-06  NBF=   607
 NBsUse=   607 1.00D-06 EigRej= -1.00D+00 NBFU=   607
 ExpMin= 2.97D-02 ExpMax= 1.11D+05 ExpMxC= 3.24D+03 IAcc=3 IRadAn=         7 AccDes= 0.00D+00
 Harris functional with IExCor= 4639 and IRadAn=       7 diagonalized for initial guess.
 HarFok:  IExCor= 4639 AccDes= 0.00D+00 IRadAn=         7 IDoV= 1 UseB2=F ITyADJ=14
 ICtDFT=  3500011 ScaDFX=  1.000000  1.000000  1.000000  1.000000
 FoFCou: FMM=F IPFlag=           0 FMFlag=      100000 FMFlg1=           0
         NFxFlg=           0 DoJE=T BraDBF=F KetDBF=T FulRan=T
         wScrn=  0.000000 ICntrl=       500 IOpCl=  0 I1Cent=   200000004 NGrid=           0
         NMat0=    1 NMatS0=      1 NMatT0=    0 NMatD0=    1 NMtDS0=    0 NMtDT0=    0
 Petite list used in FoFCou.
 Requested convergence on RMS density matrix=1.00D-08 within 128 cycles.
 Requested convergence on MAX density matrix=1.00D-06.
 Requested convergence on             energy=1.00D-06.
 No special actions if energy rises.
 Inv3:  Mode=1 IEnd=    26213808.
 Iteration    1 A*A^-1 deviation from unit magnitude is 3.33D-15 for   2002.
 Iteration    1 A*A^-1 deviation from orthogonality  is 2.18D-15 for   1349    792.
 Iteration    1 A^-1*A deviation from unit magnitude is 3.33D-15 for   2002.
 Iteration    1 A^-1*A deviation from orthogonality  is 2.50D-15 for   2295   1776.
 Error on total polarization charges =  0.01859
 SCF Done:  E(RwB97XD) =  -1868.71031285     A.U. after   16 cycles
            NFock= 16  Conv=0.52D-08     -V/T= 2.0041
 DoSCS=F DFT=T ScalE2(SS,OS)=  1.000000  1.000000
 Range of M.O.s used for correlation:     1   607
 NBasis=   607 NAE=    84 NBE=    84 NFC=     0 NFV=     0
 NROrb=    607 NOA=    84 NOB=    84 NVA=   523 NVB=   523

 **** Warning!!: The largest alpha MO coefficient is  0.93593868D+02

 NEqPCM:  Using equilibrium solvation (IEInf=0, Eps=   4.7113, EpsInf=   2.0906)
          Differentiating once with respect to magnetic field using GIAOs.
          Electric field/nuclear overlap derivatives assumed to be zero.
 FoFJK:  IHMeth= 1 ICntrl=    6127 DoSepK=T KAlg= 0 I1Cent=           0 FoldK=F
 IRaf=         1 NMat=       1 IRICut=       1 DoRegI=T DoRafI=F ISym2E= 0 IDoP0=0 IntGTp=1.
          There are     3 degrees of freedom in the 1st order CPHF.  IDoFFX=0 NUNeed=     3.
      3 vectors produced by pass  0 Test12= 1.46D-12 3.33D-08 XBig12= 9.33D+02 4.56D+00.
 AX will form     3 AO Fock derivatives at one time.
      3 vectors produced by pass  1 Test12= 1.46D-12 3.33D-08 XBig12= 7.69D+00 4.77D-01.
      3 vectors produced by pass  2 Test12= 1.46D-12 3.33D-08 XBig12= 1.51D-01 1.14D-01.
      3 vectors produced by pass  3 Test12= 1.46D-12 3.33D-08 XBig12= 3.42D-03 1.14D-02.
      3 vectors produced by pass  4 Test12= 1.46D-12 3.33D-08 XBig12= 3.99D-05 6.62D-04.
      3 vectors produced by pass  5 Test12= 1.46D-12 3.33D-08 XBig12= 4.18D-07 1.03D-04.
      3 vectors produced by pass  6 Test12= 1.46D-12 3.33D-08 XBig12= 7.15D-09 1.86D-05.
      3 vectors produced by pass  7 Test12= 1.46D-12 3.33D-08 XBig12= 1.11D-10 2.65D-06.
      3 vectors produced by pass  8 Test12= 1.46D-12 3.33D-08 XBig12= 1.74D-12 3.44D-07.
      1 vectors produced by pass  9 Test12= 1.46D-12 3.33D-08 XBig12= 3.00D-14 3.59D-08.
 InvSVY:  IOpt=1 It=  1 EMax= 5.33D-15
 Solved reduced A of dimension    28 with     3 vectors.
 Calculating GIAO nuclear magnetic shielding tensors.
 SCF GIAO Magnetic shielding tensor (ppm):
      1  C    Isotropic =    65.8779   Anisotropy =   181.8282
   XX=    -9.7972   YX=    38.9834   ZX=    20.2274
   XY=    40.3635   YY=    23.1427   ZY=   -15.6954
   XZ=    19.7241   YZ=   -14.4380   ZZ=   184.2883
   Eigenvalues:   -39.0773    49.6144   187.0967
      2  C    Isotropic =    66.3401   Anisotropy =   180.4674
   XX=    52.3910   YX=   -10.9819   ZX=    10.3811
   XY=    -9.9707   YY=   -37.7010   ZY=   -16.8275
   XZ=    10.5711   YZ=   -18.2074   ZZ=   184.3304
   Eigenvalues:   -40.0826    52.4512   186.6517
      3  C    Isotropic =    66.6868   Anisotropy =   179.9130
   XX=   -18.8899   YX=   -32.9699   ZX=    13.1223
   XY=   -38.7890   YY=    35.1316   ZY=    -9.8457
   XZ=    17.3214   YZ=   -16.1048   ZZ=   183.8187
   Eigenvalues:   -37.0715    50.5031   186.6288
      4  C    Isotropic =    59.9206   Anisotropy =   171.6559
   XX=    -9.9260   YX=    33.5713   ZX=    21.0030
   XY=    35.6824   YY=    18.3422   ZY=   -16.5365
   XZ=    18.2120   YZ=   -14.3656   ZZ=   171.3455
   Eigenvalues:   -36.1788    41.5827   174.3578
      5  C    Isotropic =    64.6795   Anisotropy =   159.7387
   XX=    60.0932   YX=   -10.1118   ZX=     8.7684
   XY=   -10.8048   YY=   -35.3876   ZY=   -13.4788
   XZ=    10.9823   YZ=   -12.7722   ZZ=   169.3331
   Eigenvalues:   -37.2197    60.0863   171.1720
      6  C    Isotropic =    66.4145   Anisotropy =   179.4634
   XX=   -20.9666   YX=   -35.8333   ZX=    15.7374
   XY=   -36.8198   YY=    36.1111   ZY=    -7.3844
   XZ=    15.8314   YZ=    -7.8891   ZZ=   184.0989
   Eigenvalues:   -39.1568    52.3435   186.0567
      7  H    Isotropic =    23.7390   Anisotropy =     4.4281
   XX=    24.8968   YX=     1.3662   ZX=    -0.2212
   XY=     1.3373   YY=    25.6726   ZY=     0.2018
   XZ=    -0.3277   YZ=     0.2874   ZZ=    20.6477
   Eigenvalues:    20.6065    23.9194    26.6911
      8  H    Isotropic =    23.7246   Anisotropy =     5.2238
   XX=    24.9138   YX=    -1.6837   ZX=    -0.4706
   XY=    -1.7106   YY=    25.8361   ZY=     0.5127
   XZ=    -0.5563   YZ=     0.4788   ZZ=    20.4238
   Eigenvalues:    20.3470    23.6196    27.2071
      9  H    Isotropic =    23.4655   Anisotropy =    11.5263
   XX=    23.1687   YX=    -5.0905   ZX=    -0.3391
   XY=    -4.1321   YY=    28.3610   ZY=     0.4939
   XZ=    -0.3379   YZ=     1.5847   ZZ=    18.8667
   Eigenvalues:    18.7429    20.5039    31.1496
     10  H    Isotropic =    23.6997   Anisotropy =     6.0727
   XX=    27.2974   YX=    -1.2122   ZX=    -0.6279
   XY=    -1.2647   YY=    23.6003   ZY=     0.2283
   XZ=    -0.7792   YZ=     0.2898   ZZ=    20.2013
   Eigenvalues:    20.1265    23.2244    27.7481
     11  H    Isotropic =    23.6914   Anisotropy =     8.9550
   XX=    29.5956   YX=     0.2327   ZX=    -0.7105
   XY=    -0.1611   YY=    21.5964   ZY=     0.0785
   XZ=    -0.8923   YZ=    -0.0613   ZZ=    19.8823
   Eigenvalues:    19.8166    21.5963    29.6614
     12  C    Isotropic =   133.1406   Anisotropy =    30.6932
   XX=   152.1101   YX=   -16.4261   ZX=     7.7192
   XY=    -0.2345   YY=   106.8785   ZY=     2.5172
   XZ=    -3.5676   YZ=    17.5696   ZZ=   140.4331
   Eigenvalues:   102.6139   143.2051   153.6027
     13  C    Isotropic =   117.3309   Anisotropy =    66.4021
   XX=   145.0115   YX=   -29.0597   ZX=    -9.4394
   XY=   -31.7166   YY=   102.7685   ZY=    -6.0666
   XZ=    -9.1111   YZ=    -2.2326   ZZ=   104.2127
   Eigenvalues:    83.7024   106.6914   161.5990
     14  O    Isotropic =   196.3450   Anisotropy =   140.4509
   XX=   136.1634   YX=    -5.3671   ZX=   -13.1066
   XY=   -30.5940   YY=   166.9525   ZY=   -26.6084
   XZ=   -19.2708   YZ=   -10.9343   ZZ=   285.9192
   Eigenvalues:   124.6909   174.3653   289.9790
     15  H    Isotropic =    26.7689   Anisotropy =     6.0144
   XX=    27.8568   YX=    -0.4127   ZX=     3.4658
   XY=    -1.4644   YY=    23.3105   ZY=     0.4884
   XZ=     0.8622   YZ=     1.9214   ZZ=    29.1395
   Eigenvalues:    22.6809    26.8474    30.7785
     16  H    Isotropic =    27.1813   Anisotropy =     8.2776
   XX=    27.8136   YX=    -3.8468   ZX=     0.0189
   XY=    -2.4806   YY=    30.0192   ZY=    -3.4698
   XZ=    -2.1583   YZ=    -2.6200   ZZ=    23.7111
   Eigenvalues:    21.6234    27.2209    32.6997
     17  S    Isotropic =   607.8776   Anisotropy =   123.2624
   XX=   492.3848   YX=     8.3839   ZX=   -19.1919
   XY=   -38.9057   YY=   647.9875   ZY=     8.7896
   XZ=   -27.8405   YZ=    13.1385   ZZ=   683.2604
   Eigenvalues:   488.3264   645.2539   690.0525
     18  H    Isotropic =    23.2598   Anisotropy =    11.6992
   XX=    25.4217   YX=     5.6151   ZX=    -0.7178
   XY=     4.8679   YY=    25.9499   ZY=    -1.4060
   XZ=    -0.5181   YZ=    -0.8926   ZZ=    18.4078
   Eigenvalues:    18.2295    20.4906    31.0593
     19  P    Isotropic =   256.2672   Anisotropy =   222.2251
   XX=   124.5775   YX=     3.2161   ZX=    15.1496
   XY=   -25.3101   YY=   394.2342   ZY=   -35.3689
   XZ=    -3.7210   YZ=   -41.7447   ZZ=   249.9900
   Eigenvalues:   123.9839   240.4005   404.4173
     20  C    Isotropic =    61.2292   Anisotropy =   185.2344
   XX=    -1.1215   YX=    19.7992   ZX=   -52.2342
   XY=    18.6092   YY=    30.4341   ZY=    55.5991
   XZ=   -53.8629   YZ=    51.5962   ZZ=   154.3748
   Eigenvalues:   -37.5889    36.5576   184.7188
     21  S    Isotropic =   400.9179   Anisotropy =   331.4498
   XX=   537.6059   YX=  -130.0881   ZX=  -124.6288
   XY=   -83.2636   YY=   458.8808   ZY=    13.3751
   XZ=   -72.9402   YZ=   -80.2689   ZZ=   206.2670
   Eigenvalues:   165.5214   415.3478   621.8844
     22  C    Isotropic =    67.5504   Anisotropy =   136.4011
   XX=    12.0871   YX=   -23.5472   ZX=   -29.8723
   XY=   -31.8042   YY=    52.4794   ZY=    27.1821
   XZ=   -32.5722   YZ=    35.4368   ZZ=   138.0847
   Eigenvalues:    -3.5779    47.7446   158.4844
     23  H    Isotropic =    24.2306   Anisotropy =     8.4971
   XX=    29.3439   YX=     1.0740   ZX=     1.8908
   XY=     1.7228   YY=    23.0010   ZY=    -0.6702
   XZ=     1.6424   YZ=    -1.0750   ZZ=    20.3468
   Eigenvalues:    19.6256    23.1708    29.8953
     24  C    Isotropic =    85.9930   Anisotropy =   150.2927
   XX=    74.8498   YX=   -14.6335   ZX=   -22.9106
   XY=     0.3576   YY=    19.7619   ZY=    55.0058
   XZ=   -26.3905   YZ=    49.1971   ZZ=   163.3673
   Eigenvalues:     2.8406    68.9503   186.1881
     25  H    Isotropic =    27.7220   Anisotropy =     8.0548
   XX=    25.9109   YX=     0.7456   ZX=    -0.2966
   XY=    -1.0645   YY=    32.6432   ZY=     2.0255
   XZ=     0.6303   YZ=     1.8667   ZZ=    24.6118
   Eigenvalues:    24.1428    25.9313    33.0918
     26  C    Isotropic =    58.1074   Anisotropy =   189.3629
   XX=    44.4487   YX=    -9.0697   ZX=   -31.1559
   XY=    -3.7505   YY=   -25.6573   ZY=    66.3711
   XZ=   -32.1588   YZ=    65.5063   ZZ=   155.5309
   Eigenvalues:   -47.2704    37.2433   184.3493
     27  C    Isotropic =    30.6828   Anisotropy =   140.6145
   XX=   -24.7949   YX=   -37.1151   ZX=   -25.1810
   XY=   -33.6993   YY=     8.5159   ZY=    29.5912
   XZ=   -25.8637   YZ=    29.3297   ZZ=   108.3274
   Eigenvalues:   -47.5108    15.1334   124.4258
     28  H    Isotropic =    23.0416   Anisotropy =    11.4259
   XX=    29.7686   YX=     1.5313   ZX=     2.6286
   XY=     1.9777   YY=    20.7257   ZY=     0.0519
   XZ=     2.6455   YZ=     0.0068   ZZ=    18.6306
   Eigenvalues:    17.9870    20.4789    30.6589
     29  C    Isotropic =    79.6543   Anisotropy =   142.4423
   XX=    28.6739   YX=    19.3646   ZX=   -42.5540
   XY=    19.1185   YY=    60.1804   ZY=    42.1517
   XZ=   -42.7294   YZ=    42.5267   ZZ=   150.1088
   Eigenvalues:    -2.3072    66.6543   174.6159
     30  C    Isotropic =   141.5560   Anisotropy =    70.8548
   XX=   118.2751   YX=    15.4441   ZX=    -5.7332
   XY=    11.9693   YY=   181.4122   ZY=   -16.7302
   XZ=    -4.4673   YZ=   -15.8819   ZZ=   124.9805
   Eigenvalues:   114.9479   120.9274   188.7925
     31  O    Isotropic =   233.3815   Anisotropy =    85.7244
   XX=   273.5712   YX=    26.0587   ZX=   -12.7083
   XY=   -10.9175   YY=   153.4206   ZY=    42.2880
   XZ=    -0.4789   YZ=    52.6206   ZZ=   273.1526
   Eigenvalues:   136.2611   273.3522   290.5311
     32  H    Isotropic =    27.7220   Anisotropy =     8.0635
   XX=    26.1460   YX=     2.2065   ZX=    -1.0324
   XY=     0.4962   YY=    28.1698   ZY=    -4.7240
   XZ=    -0.7993   YZ=    -3.6955   ZZ=    28.8502
   Eigenvalues:    24.2024    25.8659    33.0977
     33  H    Isotropic =    27.3866   Anisotropy =     8.6714
   XX=    29.9150   YX=     2.6378   ZX=     0.8401
   XY=     4.7825   YY=    28.9120   ZY=    -0.7732
   XZ=     0.1477   YZ=    -1.3060   ZZ=    23.3327
   Eigenvalues:    22.8829    26.1094    33.1675
     34  H    Isotropic =    24.2300   Anisotropy =     6.2682
   XX=    25.5196   YX=     2.4462   ZX=     0.4537
   XY=     2.1942   YY=    26.4179   ZY=    -1.3861
   XZ=     0.5156   YZ=    -1.3597   ZZ=    20.7526
   Eigenvalues:    20.2230    24.0582    28.4088
     35  H    Isotropic =    26.1864   Anisotropy =     9.2466
   XX=    30.3363   YX=     2.1706   ZX=     1.5061
   XY=     3.7439   YY=    27.2455   ZY=    -0.0104
   XZ=     1.5444   YZ=     1.1218   ZZ=    20.9776
   Eigenvalues:    20.7340    25.4745    32.3508
 End of Minotr F.D. properties file   721 does not exist.
 End of Minotr F.D. properties file   722 does not exist.
 End of Minotr F.D. properties file   788 does not exist.

 **********************************************************************

            Population analysis using the SCF Density.

 **********************************************************************

 Orbital symmetries:
       Occupied  (A) (A) (A) (A) (A) (A) (A) (A) (A) (A) (A) (A)
                 (A) (A) (A) (A) (A) (A) (A) (A) (A) (A) (A) (A)
                 (A) (A) (A) (A) (A) (A) (A) (A) (A) (A) (A) (A)
                 (A) (A) (A) (A) (A) (A) (A) (A) (A) (A) (A) (A)
                 (A) (A) (A) (A) (A) (A) (A) (A) (A) (A) (A) (A)
                 (A) (A) (A) (A) (A) (A) (A) (A) (A) (A) (A) (A)
                 (A) (A) (A) (A) (A) (A) (A) (A) (A) (A) (A) (A)
       Virtual   (A) (A) (A) (A) (A) (A) (A) (A) (A) (A) (A) (A)
                 (A) (A) (A) (A) (A) (A) (A) (A) (A) (A) (A) (A)
                 (A) (A) (A) (A) (A) (A) (A) (A) (A) (A) (A) (A)
                 (A) (A) (A) (A) (A) (A) (A) (A) (A) (A) (A) (A)
                 (A) (A) (A) (A) (A) (A) (A) (A) (A) (A) (A) (A)
                 (A) (A) (A) (A) (A) (A) (A) (A) (A) (A) (A) (A)
                 (A) (A) (A) (A) (A) (A) (A) (A) (A) (A) (A) (A)
                 (A) (A) (A) (A) (A) (A) (A) (A) (A) (A) (A) (A)
                 (A) (A) (A) (A) (A) (A) (A) (A) (A) (A) (A) (A)
                 (A) (A) (A) (A) (A) (A) (A) (A) (A) (A) (A) (A)
                 (A) (A) (A) (A) (A) (A) (A) (A) (A) (A) (A) (A)
                 (A) (A) (A) (A) (A) (A) (A) (A) (A) (A) (A) (A)
                 (A) (A) (A) (A) (A) (A) (A) (A) (A) (A) (A) (A)
                 (A) (A) (A) (A) (A) (A) (A) (A) (A) (A) (A) (A)
                 (A) (A) (A) (A) (A) (A) (A) (A) (A) (A) (A) (A)
                 (A) (A) (A) (A) (A) (A) (A) (A) (A) (A) (A) (A)
                 (A) (A) (A) (A) (A) (A) (A) (A) (A) (A) (A) (A)
                 (A) (A) (A) (A) (A) (A) (A) (A) (A) (A) (A) (A)
                 (A) (A) (A) (A) (A) (A) (A) (A) (A) (A) (A) (A)
                 (A) (A) (A) (A) (A) (A) (A) (A) (A) (A) (A) (A)
                 (A) (A) (A) (A) (A) (A) (A) (A) (A) (A) (A) (A)
                 (A) (A) (A) (A) (A) (A) (A) (A) (A) (A) (A) (A)
                 (A) (A) (A) (A) (A) (A) (A) (A) (A) (A) (A) (A)
                 (A) (A) (A) (A) (A) (A) (A) (A) (A) (A) (A) (A)
                 (A) (A) (A) (A) (A) (A) (A) (A) (A) (A) (A) (A)
                 (A) (A) (A) (A) (A) (A) (A) (A) (A) (A) (A) (A)
                 (A) (A) (A) (A) (A) (A) (A) (A) (A) (A) (A) (A)
                 (A) (A) (A) (A) (A) (A) (A) (A) (A) (A) (A) (A)
                 (A) (A) (A) (A) (A) (A) (A) (A) (A) (A) (A) (A)
                 (A) (A) (A) (A) (A) (A) (A) (A) (A) (A) (A) (A)
                 (A) (A) (A) (A) (A) (A) (A) (A) (A) (A) (A) (A)
                 (A) (A) (A) (A) (A) (A) (A) (A) (A) (A) (A) (A)
                 (A) (A) (A) (A) (A) (A) (A) (A) (A) (A) (A) (A)
                 (A) (A) (A) (A) (A) (A) (A) (A) (A) (A) (A) (A)
                 (A) (A) (A) (A) (A) (A) (A) (A) (A) (A) (A) (A)
                 (A) (A) (A) (A) (A) (A) (A) (A) (A) (A) (A) (A)
                 (A) (A) (A) (A) (A) (A) (A) (A) (A) (A) (A) (A)
                 (A) (A) (A) (A) (A) (A) (A) (A) (A) (A) (A) (A)
                 (A) (A) (A) (A) (A) (A) (A) (A) (A) (A) (A) (A)
                 (A) (A) (A) (A) (A) (A) (A) (A) (A) (A) (A) (A)
                 (A) (A) (A) (A) (A) (A) (A) (A) (A) (A) (A) (A)
                 (A) (A) (A) (A) (A) (A) (A) (A) (A) (A) (A) (A)
                 (A) (A) (A) (A) (A) (A) (A) (A) (A) (A) (A) (A)
                 (A) (A) (A) (A) (A) (A) (A)
 The electronic state is 1-A.
 Alpha  occ. eigenvalues --  -89.06623 -89.01425 -77.38640 -19.31971 -19.31528
 Alpha  occ. eigenvalues --  -10.38509 -10.37603 -10.36247 -10.35489 -10.33102
 Alpha  occ. eigenvalues --  -10.33095 -10.32831 -10.32644 -10.31820 -10.31569
 Alpha  occ. eigenvalues --  -10.31556 -10.31423 -10.31389 -10.31382 -10.31333
 Alpha  occ. eigenvalues --   -8.08357  -8.03383  -6.80010  -6.03228  -6.02994
 Alpha  occ. eigenvalues --   -6.02285  -5.98365  -5.97624  -5.97563  -4.94956
 Alpha  occ. eigenvalues --   -4.94745  -4.94577  -1.18879  -1.17069  -0.98106
 Alpha  occ. eigenvalues --   -0.98008  -0.92715  -0.90125  -0.87347  -0.86061
 Alpha  occ. eigenvalues --   -0.85956  -0.84792  -0.80651  -0.79996  -0.74394
 Alpha  occ. eigenvalues --   -0.72674  -0.71502  -0.71136  -0.68357  -0.66442
 Alpha  occ. eigenvalues --   -0.63856  -0.62245  -0.59848  -0.58980  -0.58386
 Alpha  occ. eigenvalues --   -0.57480  -0.56939  -0.55544  -0.55081  -0.54702
 Alpha  occ. eigenvalues --   -0.52850  -0.51845  -0.51704  -0.51271  -0.50292
 Alpha  occ. eigenvalues --   -0.49139  -0.48447  -0.47237  -0.47050  -0.45764
 Alpha  occ. eigenvalues --   -0.44590  -0.43758  -0.43593  -0.42723  -0.42586
 Alpha  occ. eigenvalues --   -0.41970  -0.39448  -0.35856  -0.34993  -0.34374
 Alpha  occ. eigenvalues --   -0.34230  -0.33165  -0.32401  -0.31140
 Alpha virt. eigenvalues --    0.00818   0.02579   0.03280   0.03673   0.03820
 Alpha virt. eigenvalues --    0.03943   0.04368   0.04711   0.04819   0.05217
 Alpha virt. eigenvalues --    0.05531   0.05762   0.06186   0.06391   0.07224
 Alpha virt. eigenvalues --    0.07438   0.07668   0.08021   0.08275   0.08752
 Alpha virt. eigenvalues --    0.09330   0.09402   0.09795   0.10405   0.10698
 Alpha virt. eigenvalues --    0.11281   0.11654   0.12287   0.12602   0.12804
 Alpha virt. eigenvalues --    0.12971   0.13036   0.13365   0.13619   0.13974
 Alpha virt. eigenvalues --    0.14211   0.14290   0.14451   0.14688   0.14779
 Alpha virt. eigenvalues --    0.14994   0.15428   0.15511   0.15821   0.16111
 Alpha virt. eigenvalues --    0.16230   0.16740   0.16928   0.17225   0.17338
 Alpha virt. eigenvalues --    0.17488   0.17685   0.17873   0.18115   0.18416
 Alpha virt. eigenvalues --    0.18681   0.18720   0.19100   0.19288   0.19517
 Alpha virt. eigenvalues --    0.19651   0.20277   0.20384   0.21017   0.21042
 Alpha virt. eigenvalues --    0.21433   0.21652   0.21898   0.22576   0.22842
 Alpha virt. eigenvalues --    0.23282   0.23499   0.23689   0.24135   0.24560
 Alpha virt. eigenvalues --    0.25000   0.25396   0.25579   0.25948   0.26171
 Alpha virt. eigenvalues --    0.26449   0.26696   0.27282   0.27479   0.27634
 Alpha virt. eigenvalues --    0.28015   0.28087   0.28324   0.28490   0.28693
 Alpha virt. eigenvalues --    0.29081   0.29334   0.29427   0.29716   0.30034
 Alpha virt. eigenvalues --    0.30302   0.30808   0.31040   0.31373   0.31625
 Alpha virt. eigenvalues --    0.31789   0.32074   0.32329   0.32612   0.32816
 Alpha virt. eigenvalues --    0.33209   0.33536   0.33640   0.33985   0.34327
 Alpha virt. eigenvalues --    0.34427   0.34598   0.35279   0.35331   0.36033
 Alpha virt. eigenvalues --    0.36340   0.36508   0.36743   0.37083   0.37682
 Alpha virt. eigenvalues --    0.37930   0.38200   0.38348   0.38559   0.38907
 Alpha virt. eigenvalues --    0.39473   0.39729   0.40016   0.40451   0.40665
 Alpha virt. eigenvalues --    0.41245   0.41447   0.41617   0.41766   0.42298
 Alpha virt. eigenvalues --    0.42563   0.42708   0.43132   0.43172   0.44305
 Alpha virt. eigenvalues --    0.44688   0.44930   0.45351   0.45611   0.46269
 Alpha virt. eigenvalues --    0.46698   0.47222   0.47546   0.47946   0.48138
 Alpha virt. eigenvalues --    0.49100   0.49368   0.49664   0.49878   0.50547
 Alpha virt. eigenvalues --    0.51039   0.51700   0.51832   0.52428   0.52566
 Alpha virt. eigenvalues --    0.53084   0.53361   0.54105   0.54339   0.54776
 Alpha virt. eigenvalues --    0.55073   0.55506   0.55695   0.55918   0.56352
 Alpha virt. eigenvalues --    0.56801   0.57683   0.57837   0.57892   0.58828
 Alpha virt. eigenvalues --    0.59133   0.59399   0.59458   0.60089   0.60663
 Alpha virt. eigenvalues --    0.60746   0.61185   0.61318   0.61863   0.62093
 Alpha virt. eigenvalues --    0.62242   0.62439   0.62744   0.63008   0.63393
 Alpha virt. eigenvalues --    0.63484   0.63742   0.64392   0.64528   0.64887
 Alpha virt. eigenvalues --    0.65098   0.65598   0.65945   0.66464   0.66622
 Alpha virt. eigenvalues --    0.67365   0.67420   0.67939   0.68268   0.68675
 Alpha virt. eigenvalues --    0.69240   0.69557   0.69902   0.70440   0.70976
 Alpha virt. eigenvalues --    0.71101   0.71168   0.71602   0.71790   0.72522
 Alpha virt. eigenvalues --    0.72640   0.72833   0.73289   0.73793   0.74167
 Alpha virt. eigenvalues --    0.74678   0.74808   0.75044   0.75162   0.75333
 Alpha virt. eigenvalues --    0.75695   0.76475   0.76751   0.77219   0.77677
 Alpha virt. eigenvalues --    0.78197   0.78458   0.78755   0.79311   0.79512
 Alpha virt. eigenvalues --    0.80401   0.80553   0.81040   0.81827   0.81879
 Alpha virt. eigenvalues --    0.82221   0.82426   0.82789   0.83334   0.83584
 Alpha virt. eigenvalues --    0.84298   0.84528   0.84827   0.85339   0.85556
 Alpha virt. eigenvalues --    0.85901   0.86118   0.86484   0.86972   0.87750
 Alpha virt. eigenvalues --    0.88091   0.88538   0.89158   0.89435   0.90348
 Alpha virt. eigenvalues --    0.90437   0.90776   0.91151   0.91286   0.92233
 Alpha virt. eigenvalues --    0.92660   0.93442   0.93550   0.94483   0.94765
 Alpha virt. eigenvalues --    0.95597   0.95934   0.96731   0.97248   0.98247
 Alpha virt. eigenvalues --    0.98304   0.99427   0.99821   1.00868   1.00937
 Alpha virt. eigenvalues --    1.01946   1.02782   1.03445   1.03616   1.04938
 Alpha virt. eigenvalues --    1.05976   1.06352   1.06830   1.07780   1.08209
 Alpha virt. eigenvalues --    1.08429   1.09281   1.10035   1.10997   1.11223
 Alpha virt. eigenvalues --    1.11668   1.12201   1.12891   1.13653   1.14514
 Alpha virt. eigenvalues --    1.15480   1.16297   1.16553   1.16885   1.17849
 Alpha virt. eigenvalues --    1.18105   1.19223   1.20061   1.20979   1.21566
 Alpha virt. eigenvalues --    1.22005   1.23239   1.23595   1.24355   1.25444
 Alpha virt. eigenvalues --    1.26116   1.28093   1.28191   1.29894   1.30576
 Alpha virt. eigenvalues --    1.31759   1.33531   1.34580   1.35063   1.35641
 Alpha virt. eigenvalues --    1.36621   1.36766   1.37466   1.38588   1.39529
 Alpha virt. eigenvalues --    1.39956   1.40856   1.41258   1.42579   1.43104
 Alpha virt. eigenvalues --    1.43338   1.43950   1.44486   1.45502   1.46494
 Alpha virt. eigenvalues --    1.46770   1.47333   1.47552   1.48788   1.49115
 Alpha virt. eigenvalues --    1.50072   1.50577   1.51287   1.51339   1.52150
 Alpha virt. eigenvalues --    1.52891   1.54445   1.54599   1.55476   1.56027
 Alpha virt. eigenvalues --    1.56404   1.56780   1.57618   1.58003   1.58575
 Alpha virt. eigenvalues --    1.59309   1.59544   1.60194   1.61423   1.61768
 Alpha virt. eigenvalues --    1.61936   1.62765   1.63219   1.64111   1.65073
 Alpha virt. eigenvalues --    1.65630   1.66616   1.66795   1.67732   1.68039
 Alpha virt. eigenvalues --    1.69227   1.70039   1.70237   1.71539   1.71802
 Alpha virt. eigenvalues --    1.72655   1.73913   1.74221   1.74771   1.75533
 Alpha virt. eigenvalues --    1.76417   1.77191   1.77316   1.78496   1.78888
 Alpha virt. eigenvalues --    1.79461   1.80558   1.81194   1.81411   1.81838
 Alpha virt. eigenvalues --    1.82025   1.82742   1.83390   1.84375   1.84536
 Alpha virt. eigenvalues --    1.85052   1.86621   1.87077   1.87524   1.88661
 Alpha virt. eigenvalues --    1.90458   1.91163   1.92134   1.92606   1.93112
 Alpha virt. eigenvalues --    1.93558   1.94706   1.94903   1.95780   1.97156
 Alpha virt. eigenvalues --    1.97517   1.98241   1.99357   2.00866   2.01071
 Alpha virt. eigenvalues --    2.01904   2.02309   2.02964   2.03968   2.04430
 Alpha virt. eigenvalues --    2.05062   2.06295   2.07188   2.07234   2.08194
 Alpha virt. eigenvalues --    2.09121   2.09539   2.10385   2.11104   2.11777
 Alpha virt. eigenvalues --    2.11978   2.12636   2.14068   2.14573   2.15187
 Alpha virt. eigenvalues --    2.15897   2.17166   2.17510   2.18883   2.19645
 Alpha virt. eigenvalues --    2.20109   2.20586   2.20837   2.22395   2.23459
 Alpha virt. eigenvalues --    2.24004   2.24829   2.25606   2.26828   2.29593
 Alpha virt. eigenvalues --    2.31355   2.32414   2.34020   2.35743   2.37260
 Alpha virt. eigenvalues --    2.38426   2.39373   2.40419   2.42101   2.42913
 Alpha virt. eigenvalues --    2.44048   2.46421   2.46868   2.47554   2.51854
 Alpha virt. eigenvalues --    2.52781   2.54756   2.57116   2.59169   2.60010
 Alpha virt. eigenvalues --    2.61225   2.61515   2.63568   2.63691   2.66761
 Alpha virt. eigenvalues --    2.67717   2.69992   2.71966   2.72667   2.74725
 Alpha virt. eigenvalues --    2.76111   2.79432   2.81250   2.82917   2.83030
 Alpha virt. eigenvalues --    2.86017   2.86949   2.89643   2.92765   2.93985
 Alpha virt. eigenvalues --    2.95235   2.99646   3.05136   3.07294   3.09346
 Alpha virt. eigenvalues --    3.13385   3.14213   3.17824   3.33325   3.35418
 Alpha virt. eigenvalues --    3.40511   3.45446   3.47668   3.48300   3.49662
 Alpha virt. eigenvalues --    3.51668   3.58259   3.59166   3.59676   3.59731
 Alpha virt. eigenvalues --    3.68595   3.70616   3.75296   3.80441   3.85828
 Alpha virt. eigenvalues --    3.88235   4.61438   4.64229
          Condensed to atoms (all electrons):
               1          2          3          4          5          6
     1  C   12.208429  -5.017812   4.005015  -5.337003   4.872181  -4.929277
     2  C   -5.017812  15.602230  -7.016798   3.969798  -5.950601   4.762899
     3  C    4.005015  -7.016798  22.426310  -8.662413   1.747394  -4.677150
     4  C   -5.337003   3.969798  -8.662413  20.004028  -9.234038   4.279379
     5  C    4.872181  -5.950601   1.747394  -9.234038  23.141124  -6.549642
     6  C   -4.929277   4.762899  -4.677150   4.279379  -6.549642  14.029472
     7  H   -1.271157   0.643154  -0.180438   0.181277  -0.283997   0.606425
     8  H    0.461912  -0.326492   0.148560  -0.218043   0.937361  -1.385605
     9  H   -0.104365   1.011027  -2.251275   0.351946  -0.297159   0.085710
    10  H    0.632803  -1.535337   1.088439  -0.448883   0.293069  -0.409289
    11  H   -0.214735   0.152081  -0.051250   0.831980  -2.234307   0.431135
    12  C    0.278100  -0.536699  -0.998681  -1.594273  -0.264195  -0.866086
    13  C   -0.142815   0.297180  -0.334254   0.167380  -0.493553   0.098335
    14  O    0.004686   0.015972   0.025324  -0.044403  -0.005604  -0.017204
    15  H   -0.006111  -0.008800   0.044458   0.095614  -0.055021   0.024347
    16  H    0.009001  -0.001457  -0.016970  -0.223770   0.033117  -0.007065
    17  S    0.000743   0.000338   0.014876  -0.004022  -0.016173  -0.006874
    18  H   -0.003658   0.041343   0.021556  -0.040301  -0.013437   0.001228
    19  P   -0.011557   0.085801  -0.067513   0.179318  -0.174433  -0.011313
    20  C    0.000493  -0.028207  -0.035936   0.018911   0.002354   0.002334
    21  S   -0.040253   0.132144   0.015985  -0.001630  -0.150107   0.010952
    22  C    0.007338   0.001383   0.060368  -0.073992   0.035898  -0.018845
    23  H    0.000405  -0.001599  -0.000038   0.002107   0.000361  -0.000248
    24  C   -0.002145   0.013130  -0.001805   0.036529  -0.018191   0.003114
    25  H    0.000000   0.000080   0.000006   0.000007  -0.000016   0.000000
    26  C    0.000650  -0.000775   0.013408  -0.048291   0.005850  -0.001403
    27  C   -0.000356   0.000564   0.002438  -0.007155  -0.001959   0.000086
    28  H   -0.000043   0.000384   0.000788   0.000702  -0.001790  -0.000192
    29  C    0.000226  -0.001553  -0.004105   0.003495   0.005016   0.000028
    30  C    0.000008   0.000106   0.000404  -0.000376  -0.000051  -0.000002
    31  O    0.000001   0.000012   0.000096  -0.000059  -0.000005  -0.000000
    32  H   -0.000003   0.000041   0.000087  -0.000081  -0.000010   0.000002
    33  H    0.000000  -0.000001   0.000001  -0.000016  -0.000001  -0.000000
    34  H    0.000005  -0.000044   0.000006  -0.000071   0.000150   0.000006
    35  H   -0.006545  -0.089945  -0.303844   0.376303  -0.142916   0.140467
               7          8          9         10         11         12
     1  C   -1.271157   0.461912  -0.104365   0.632803  -0.214735   0.278100
     2  C    0.643154  -0.326492   1.011027  -1.535337   0.152081  -0.536699
     3  C   -0.180438   0.148560  -2.251275   1.088439  -0.051250  -0.998681
     4  C    0.181277  -0.218043   0.351946  -0.448883   0.831980  -1.594273
     5  C   -0.283997   0.937361  -0.297159   0.293069  -2.234307  -0.264195
     6  C    0.606425  -1.385605   0.085710  -0.409289   0.431135  -0.866086
     7  H    2.173042  -0.105947  -0.026221  -0.110019  -0.027049  -0.009039
     8  H   -0.105947   2.229466   0.012490  -0.029723  -0.168360   0.046737
     9  H   -0.026221   0.012490   3.510696  -0.213207  -0.031871  -0.212246
    10  H   -0.110019  -0.029723  -0.213207   2.306610   0.020027   0.053753
    11  H   -0.027049  -0.168360  -0.031871   0.020027   3.005148   0.303454
    12  C   -0.009039   0.046737  -0.212246   0.053753   0.303454  10.930156
    13  C   -0.000047  -0.005632   0.089576  -0.000321   0.077829   0.069695
    14  O    0.000112  -0.000184   0.005873   0.000165  -0.004358  -0.100909
    15  H    0.000043  -0.000234   0.013192  -0.000799   0.005068  -0.004172
    16  H   -0.000740   0.000679  -0.031451  -0.003167   0.005188  -0.049928
    17  S    0.000027  -0.000202  -0.000541  -0.000074   0.003140  -0.048336
    18  H    0.000101  -0.000178  -0.027070   0.002946   0.001402  -0.070970
    19  P   -0.000292   0.000275   0.054519   0.003489  -0.013553  -0.467548
    20  C    0.000087   0.000235   0.035586  -0.000924  -0.002194   0.042629
    21  S    0.000793  -0.001154   0.039888  -0.003114   0.026537  -0.345654
    22  C    0.000280  -0.000841  -0.019549  -0.000948   0.009326   0.158205
    23  H    0.000010  -0.000001   0.001966  -0.000174  -0.000046  -0.000732
    24  C   -0.000124   0.000164  -0.003809   0.000825  -0.001114  -0.010131
    25  H   -0.000000  -0.000000  -0.000051   0.000007   0.000002  -0.000337
    26  C    0.000021  -0.000135  -0.007082  -0.000100   0.001575  -0.114671
    27  C   -0.000015   0.000002  -0.003449   0.000102   0.000083   0.021358
    28  H   -0.000002  -0.000004  -0.000009  -0.000003   0.000051  -0.005109
    29  C    0.000013  -0.000004   0.004575  -0.000083   0.000099   0.007970
    30  C   -0.000000  -0.000000  -0.000484   0.000013   0.000001   0.000954
    31  O    0.000000  -0.000000  -0.000075   0.000002  -0.000001  -0.000403
    32  H   -0.000000   0.000000  -0.000043   0.000006   0.000001   0.000050
    33  H    0.000000   0.000000  -0.000021  -0.000000  -0.000000   0.000115
    34  H    0.000000   0.000000   0.000041  -0.000001   0.000005   0.001085
    35  H    0.000286   0.012669  -0.009741  -0.003128  -0.283354  -0.779241
              13         14         15         16         17         18
     1  C   -0.142815   0.004686  -0.006111   0.009001   0.000743  -0.003658
     2  C    0.297180   0.015972  -0.008800  -0.001457   0.000338   0.041343
     3  C   -0.334254   0.025324   0.044458  -0.016970   0.014876   0.021556
     4  C    0.167380  -0.044403   0.095614  -0.223770  -0.004022  -0.040301
     5  C   -0.493553  -0.005604  -0.055021   0.033117  -0.016173  -0.013437
     6  C    0.098335  -0.017204   0.024347  -0.007065  -0.006874   0.001228
     7  H   -0.000047   0.000112   0.000043  -0.000740   0.000027   0.000101
     8  H   -0.005632  -0.000184  -0.000234   0.000679  -0.000202  -0.000178
     9  H    0.089576   0.005873   0.013192  -0.031451  -0.000541  -0.027070
    10  H   -0.000321   0.000165  -0.000799  -0.003167  -0.000074   0.002946
    11  H    0.077829  -0.004358   0.005068   0.005188   0.003140   0.001402
    12  C    0.069695  -0.100909  -0.004172  -0.049928  -0.048336  -0.070970
    13  C    5.684312  -0.025195   0.022496  -0.040583   0.080188   0.152149
    14  O   -0.025195   9.274927  -0.286606  -0.034310  -0.069943  -0.011835
    15  H    0.022496  -0.286606   2.061245  -0.474258  -0.006635   0.012500
    16  H   -0.040583  -0.034310  -0.474258   2.052971   0.004321  -0.048499
    17  S    0.080188  -0.069943  -0.006635   0.004321  16.311487   0.023971
    18  H    0.152149  -0.011835   0.012500  -0.048499   0.023971   4.162866
    19  P   -0.842724  -0.117993   0.135321  -0.123004   0.211577  -0.523077
    20  C   -0.310622   0.133948  -0.060465   0.043839  -0.042580  -3.042424
    21  S    0.043630   0.071572   0.052476   0.007037  -0.036493  -0.009600
    22  C    0.335081  -0.104120   0.004122   0.079108  -0.054532   1.094376
    23  H   -0.002169   0.000848  -0.000628   0.004335  -0.001822  -0.437047
    24  C   -0.040761  -0.017629  -0.002481  -0.014567   0.001173   0.843177
    25  H    0.000261  -0.000124   0.000038  -0.000183   0.000024   0.009933
    26  C    0.174772   0.009023   0.014697   0.015945   0.215585   0.321682
    27  C   -0.000661  -0.011398   0.000727  -0.013871   0.013272  -0.343141
    28  H   -0.002162  -0.008290  -0.000578   0.001037  -0.037638  -0.047093
    29  C   -0.027510   0.018971  -0.002560   0.014208   0.072738  -0.149252
    30  C    0.000307   0.000311   0.000106  -0.000473   0.000007   0.042673
    31  O    0.000686   0.000326   0.000007   0.000468   0.000135  -0.002963
    32  H   -0.000061  -0.000244   0.000022  -0.000161   0.000048   0.011145
    33  H    0.000003   0.000069  -0.000001  -0.000011  -0.000001  -0.001229
    34  H   -0.001132   0.000008   0.000014  -0.000187   0.000974   0.035799
    35  H   -0.125279   0.095693  -0.205362   0.180864   0.006481  -0.023633
              19         20         21         22         23         24
     1  C   -0.011557   0.000493  -0.040253   0.007338   0.000405  -0.002145
     2  C    0.085801  -0.028207   0.132144   0.001383  -0.001599   0.013130
     3  C   -0.067513  -0.035936   0.015985   0.060368  -0.000038  -0.001805
     4  C    0.179318   0.018911  -0.001630  -0.073992   0.002107   0.036529
     5  C   -0.174433   0.002354  -0.150107   0.035898   0.000361  -0.018191
     6  C   -0.011313   0.002334   0.010952  -0.018845  -0.000248   0.003114
     7  H   -0.000292   0.000087   0.000793   0.000280   0.000010  -0.000124
     8  H    0.000275   0.000235  -0.001154  -0.000841  -0.000001   0.000164
     9  H    0.054519   0.035586   0.039888  -0.019549   0.001966  -0.003809
    10  H    0.003489  -0.000924  -0.003114  -0.000948  -0.000174   0.000825
    11  H   -0.013553  -0.002194   0.026537   0.009326  -0.000046  -0.001114
    12  C   -0.467548   0.042629  -0.345654   0.158205  -0.000732  -0.010131
    13  C   -0.842724  -0.310622   0.043630   0.335081  -0.002169  -0.040761
    14  O   -0.117993   0.133948   0.071572  -0.104120   0.000848  -0.017629
    15  H    0.135321  -0.060465   0.052476   0.004122  -0.000628  -0.002481
    16  H   -0.123004   0.043839   0.007037   0.079108   0.004335  -0.014567
    17  S    0.211577  -0.042580  -0.036493  -0.054532  -0.001822   0.001173
    18  H   -0.523077  -3.042424  -0.009600   1.094376  -0.437047   0.843177
    19  P   18.940987  -0.068315   0.360660  -0.736732   0.075454   0.459706
    20  C   -0.068315  26.651762   0.225043  -8.061843   0.826708 -10.603583
    21  S    0.360660   0.225043  16.279738  -0.267540   0.006949   0.019256
    22  C   -0.736732  -8.061843  -0.267540  23.101051  -0.231866   4.117947
    23  H    0.075454   0.826708   0.006949  -0.231866   3.880918  -2.479376
    24  C    0.459706 -10.603583   0.019256   4.117947  -2.479376  22.593062
    25  H   -0.001948   0.087322  -0.000253  -0.021722  -0.067867   0.115879
    26  C   -3.304356   3.993032  -0.036991 -14.252236  -0.130896  -9.136366
    27  C   -0.352744   4.895515  -0.006996  -9.280890   0.800355  -7.073048
    28  H   -0.056935   0.146842  -0.003318   2.387187   0.021391   0.376296
    29  C    0.571649 -10.404951  -0.005389   9.005435   0.139353   5.326270
    30  C   -0.021486   0.262268  -0.001096  -0.252304  -0.090321   0.039741
    31  O    0.008051  -0.118011   0.000195   0.257181  -0.148921   0.914726
    32  H   -0.003180   0.064021  -0.000161  -0.041255  -0.072567   0.042880
    33  H   -0.000981  -0.075787  -0.000015   0.010114   0.035649  -0.298864
    34  H   -0.023861   0.460523  -0.000682  -1.221143  -0.060024  -0.121898
    35  H    0.050150   0.059274  -0.166940  -0.117746   0.001256   0.004028
              25         26         27         28         29         30
     1  C    0.000000   0.000650  -0.000356  -0.000043   0.000226   0.000008
     2  C    0.000080  -0.000775   0.000564   0.000384  -0.001553   0.000106
     3  C    0.000006   0.013408   0.002438   0.000788  -0.004105   0.000404
     4  C    0.000007  -0.048291  -0.007155   0.000702   0.003495  -0.000376
     5  C   -0.000016   0.005850  -0.001959  -0.001790   0.005016  -0.000051
     6  C    0.000000  -0.001403   0.000086  -0.000192   0.000028  -0.000002
     7  H   -0.000000   0.000021  -0.000015  -0.000002   0.000013  -0.000000
     8  H   -0.000000  -0.000135   0.000002  -0.000004  -0.000004  -0.000000
     9  H   -0.000051  -0.007082  -0.003449  -0.000009   0.004575  -0.000484
    10  H    0.000007  -0.000100   0.000102  -0.000003  -0.000083   0.000013
    11  H    0.000002   0.001575   0.000083   0.000051   0.000099   0.000001
    12  C   -0.000337  -0.114671   0.021358  -0.005109   0.007970   0.000954
    13  C    0.000261   0.174772  -0.000661  -0.002162  -0.027510   0.000307
    14  O   -0.000124   0.009023  -0.011398  -0.008290   0.018971   0.000311
    15  H    0.000038   0.014697   0.000727  -0.000578  -0.002560   0.000106
    16  H   -0.000183   0.015945  -0.013871   0.001037   0.014208  -0.000473
    17  S    0.000024   0.215585   0.013272  -0.037638   0.072738   0.000007
    18  H    0.009933   0.321682  -0.343141  -0.047093  -0.149252   0.042673
    19  P   -0.001948  -3.304356  -0.352744  -0.056935   0.571649  -0.021486
    20  C    0.087322   3.993032   4.895515   0.146842 -10.404951   0.262268
    21  S   -0.000253  -0.036991  -0.006996  -0.003318  -0.005389  -0.001096
    22  C   -0.021722 -14.252236  -9.280890   2.387187   9.005435  -0.252304
    23  H   -0.067867  -0.130896   0.800355   0.021391   0.139353  -0.090321
    24  C    0.115879  -9.136366  -7.073048   0.376296   5.326270   0.039741
    25  H    1.294943   0.020126  -0.142086  -0.001263  -0.086797   0.305211
    26  C    0.020126  34.941692  10.116312  -4.113780 -15.253918   0.343274
    27  C   -0.142086  10.116312  19.094237  -1.546066 -12.345166   0.103556
    28  H   -0.001263  -4.113780  -1.546066   3.471695   1.566150  -0.008075
    29  C   -0.086797 -15.253918 -12.345166   1.566150  30.818076  -0.688816
    30  C    0.305211   0.343274   0.103556  -0.008075  -0.688816   4.199115
    31  O    0.101174  -0.264382  -1.089016  -0.009632  -0.013018   0.141345
    32  H   -0.084543   0.036568  -0.076239  -0.001233  -0.053064   0.313001
    33  H   -0.435404   0.020024   0.387187  -0.000201   0.098888   0.302426
    34  H    0.010740   1.294111   2.365512  -0.202313  -3.493620   0.052528
    35  H   -0.000053  -0.021229  -0.002890   0.002416   0.002906  -0.000082
              31         32         33         34         35
     1  C    0.000001  -0.000003   0.000000   0.000005  -0.006545
     2  C    0.000012   0.000041  -0.000001  -0.000044  -0.089945
     3  C    0.000096   0.000087   0.000001   0.000006  -0.303844
     4  C   -0.000059  -0.000081  -0.000016  -0.000071   0.376303
     5  C   -0.000005  -0.000010  -0.000001   0.000150  -0.142916
     6  C   -0.000000   0.000002  -0.000000   0.000006   0.140467
     7  H    0.000000  -0.000000   0.000000   0.000000   0.000286
     8  H   -0.000000   0.000000   0.000000   0.000000   0.012669
     9  H   -0.000075  -0.000043  -0.000021   0.000041  -0.009741
    10  H    0.000002   0.000006  -0.000000  -0.000001  -0.003128
    11  H   -0.000001   0.000001  -0.000000   0.000005  -0.283354
    12  C   -0.000403   0.000050   0.000115   0.001085  -0.779241
    13  C    0.000686  -0.000061   0.000003  -0.001132  -0.125279
    14  O    0.000326  -0.000244   0.000069   0.000008   0.095693
    15  H    0.000007   0.000022  -0.000001   0.000014  -0.205362
    16  H    0.000468  -0.000161  -0.000011  -0.000187   0.180864
    17  S    0.000135   0.000048  -0.000001   0.000974   0.006481
    18  H   -0.002963   0.011145  -0.001229   0.035799  -0.023633
    19  P    0.008051  -0.003180  -0.000981  -0.023861   0.050150
    20  C   -0.118011   0.064021  -0.075787   0.460523   0.059274
    21  S    0.000195  -0.000161  -0.000015  -0.000682  -0.166940
    22  C    0.257181  -0.041255   0.010114  -1.221143  -0.117746
    23  H   -0.148921  -0.072567   0.035649  -0.060024   0.001256
    24  C    0.914726   0.042880  -0.298864  -0.121898   0.004028
    25  H    0.101174  -0.084543  -0.435404   0.010740  -0.000053
    26  C   -0.264382   0.036568   0.020024   1.294111  -0.021229
    27  C   -1.089016  -0.076239   0.387187   2.365512  -0.002890
    28  H   -0.009632  -0.001233  -0.000201  -0.202313   0.002416
    29  C   -0.013018  -0.053064   0.098888  -3.493620   0.002906
    30  C    0.141345   0.313001   0.302426   0.052528  -0.000082
    31  O    9.315633   0.095541  -0.366363  -0.109053   0.000010
    32  H    0.095541   1.293425  -0.432896   0.010727  -0.000029
    33  H   -0.366363  -0.432896   2.162088  -0.008385   0.000009
    34  H   -0.109053   0.010727  -0.008385   2.798097  -0.000137
    35  H    0.000010  -0.000029   0.000009  -0.000137   3.093138
 Mulliken charges:
               1
     1  C    0.605840
     2  C   -0.213547
     3  C    0.986954
     4  C    1.440047
     5  C    0.813333
     6  C    0.404274
     7  H   -0.590581
     8  H   -0.607810
     9  H   -0.977364
    10  H   -0.642963
    11  H   -0.841940
    12  C    0.565103
    13  C    1.101602
    14  O   -0.797479
    15  H   -0.371781
    16  H   -0.367462
    17  S   -0.635235
    18  H   -0.983440
    19  P    0.786592
    20  C    0.903117
    21  S   -0.215470
    22  C    0.093706
    23  H   -1.071722
    24  C    0.917990
    25  H   -0.103105
    26  C    1.148266
    27  C    0.495841
    28  H   -0.929212
    29  C    0.873742
    30  C    0.956211
    31  O   -0.713687
    32  H   -0.101792
    33  H   -0.396395
    34  H   -0.787779
    35  H   -0.743854
 Sum of Mulliken charges =  -0.00000
 Mulliken charges with hydrogens summed into heavy atoms:
               1
     1  C    0.015259
     2  C   -0.856510
     3  C    0.009590
     4  C    1.440047
     5  C   -0.028607
     6  C   -0.203536
    12  C   -0.178750
    13  C    0.362359
    14  O   -0.797479
    17  S   -0.635235
    19  P    0.786592
    20  C   -0.080323
    21  S   -0.215470
    22  C    0.093706
    24  C   -0.153732
    26  C    0.219054
    27  C    0.495841
    29  C    0.085963
    30  C    0.354919
    31  O   -0.713687
 Electronic spatial extent (au):  <R**2>=           9569.4203
 Charge=             -0.0000 electrons
 Dipole moment (field-independent basis, Debye):
    X=              0.8143    Y=             -7.8124    Z=              1.7166  Tot=              8.0401
 Quadrupole moment (field-independent basis, Debye-Ang):
   XX=           -105.1927   YY=           -138.8173   ZZ=           -145.4206
   XY=             12.8200   XZ=              2.0109   YZ=             -2.9087
 Traceless Quadrupole moment (field-independent basis, Debye-Ang):
   XX=             24.6175   YY=             -9.0071   ZZ=            -15.6104
   XY=             12.8200   XZ=              2.0109   YZ=             -2.9087
 Octapole moment (field-independent basis, Debye-Ang**2):
  XXX=             12.6460  YYY=           -113.9862  ZZZ=             13.2100  XYY=            -32.4965
  XXY=            -80.5867  XXZ=              5.3628  XZZ=            -16.2206  YZZ=             -5.2597
  YYZ=              3.0817  XYZ=             21.7541
 Hexadecapole moment (field-independent basis, Debye-Ang**3):
 XXXX=          -8799.6190 YYYY=          -2460.3666 ZZZZ=           -519.8276 XXXY=            368.6304
 XXXZ=           -101.3582 YYYX=            158.2215 YYYZ=             -1.1360 ZZZX=             32.2734
 ZZZY=              3.3848 XXYY=          -1650.1116 XXZZ=          -1883.4210 YYZZ=           -519.1294
 XXYZ=            -27.8040 YYXZ=            -14.6015 ZZXY=             42.4713
 N-N= 1.884283108052D+03 E-N=-8.172833304912D+03  KE= 1.861143213908D+03
 Unable to Open any file for archive entry.
 1\1\GINC-R063\SP\RwB97XD\Aug-CC-pVDZ\C15H15O2P1S2\ZLAB\23-May-2025\0\\
 #n nmr=giao wb97xd/aug-cc-pvdz scrf=(cpcm,solvent=Chloroform) integral
 =(acc2e=14,grid=superfinegrid)\\SBn cis NMR\\0,1\C,0,5.80486,-1.92903,
 -0.29745\C,0,4.54162,-2.52598,-0.23603\C,0,3.3995,-1.73977,-0.08013\C,
 0,3.50178,-0.34273,0.01833\C,0,4.77229,0.24576,-0.05172\C,0,5.91719,-0
 .54036,-0.20626\H,0,6.69264,-2.54224,-0.42094\H,0,6.89276,-0.06609,-0.
 25903\H,0,2.42203,-2.21275,-0.05414\H,0,4.44522,-3.60499,-0.31455\H,0,
 4.86523,1.32675,0.01303\C,0,2.28773,0.53389,0.2243\C,0,1.54711,0.25649
 ,1.54237\O,0,0.25338,0.88264,1.55165\H,0,2.10922,0.66508,2.38762\H,0,1
 .40924,-0.82021,1.68782\S,0,-0.49725,3.31785,-0.1144\H,0,-1.21202,-1.3
 4807,0.81285\P,0,-0.3974,1.38631,0.11764\C,0,-2.08272,-0.82812,0.42693
 \S,0,1.00884,0.32477,-1.11809\C,0,-1.97888,0.50826,0.01944\H,0,-3.3483
 ,-2.54068,0.68032\C,0,-3.29721,-1.50982,0.35165\H,0,-5.20473,-3.44776,
 -0.45778\C,0,-3.1217,1.15973,-0.47654\C,0,-4.43088,-0.8487,-0.14684\H,
 0,-3.05171,2.1977,-0.7854\C,0,-4.3346,0.49005,-0.56019\C,0,-5.83562,-2
 .77374,0.13411\O,0,-5.66052,-1.41743,-0.26629\H,0,-5.61714,-2.90496,1.
 20071\H,0,-6.88519,-3.00268,-0.05193\H,0,-5.22309,0.98393,-0.93919\H,0
 ,2.59565,1.5831,0.20123\\Version=ES64L-G16RevC.01\State=1-A\HF=-1868.7
 103129\RMSD=5.188e-09\Dipole=0.3203747,-3.0736303,0.6753804\Quadrupole
 =18.302488,-6.6965723,-11.6059157,9.5313515,1.4950191,-2.1625121\PG=C0
 1 [X(C15H15O2P1S2)]\\@
 The archive entry for this job was punched.


 Children are likely to live up to what you believe of them.
 -- Lady Bird Johnson
 Job cpu time:       0 days  3 hours 59 minutes 15.9 seconds.
 Elapsed time:       0 days  0 hours 15 minutes 18.0 seconds.
 File lengths (MBytes):  RWF=    285 Int=      0 D2E=      0 Chk=     30 Scr=      1
 Normal termination of Gaussian 16 at Fri May 23 06:33:05 2025.
