 Entering Gaussian System, Link 0=g16
 Initial command:
 /opt/packages/gaussian/g16RevC.01/g16/l1.exe "/ocean/projects/che200051p/zlab/tmp/Gau-49602.inp" -scrdir="/ocean/projects/che200051p/zlab/tmp/"
 Entering Link 1 = /opt/packages/gaussian/g16RevC.01/g16/l1.exe PID=     49603.
  
 Copyright (c) 1988-2019, Gaussian, Inc.  All Rights Reserved.
  
 This is part of the Gaussian(R) 16 program.  It is based on
 the Gaussian(R) 09 system (copyright 2009, Gaussian, Inc.),
 the Gaussian(R) 03 system (copyright 2003, Gaussian, Inc.),
 the Gaussian(R) 98 system (copyright 1998, Gaussian, Inc.),
 the Gaussian(R) 94 system (copyright 1995, Gaussian, Inc.),
 the Gaussian 92(TM) system (copyright 1992, Gaussian, Inc.),
 the Gaussian 90(TM) system (copyright 1990, Gaussian, Inc.),
 the Gaussian 88(TM) system (copyright 1988, Gaussian, Inc.),
 the Gaussian 86(TM) system (copyright 1986, Carnegie Mellon
 University), and the Gaussian 82(TM) system (copyright 1983,
 Carnegie Mellon University). Gaussian is a federally registered
 trademark of Gaussian, Inc.
  
 This software contains proprietary and confidential information,
 including trade secrets, belonging to Gaussian, Inc.
  
 This software is provided under written license and may be
 used, copied, transmitted, or stored only in accord with that
 written license.
  
 The following legend is applicable only to US Government
 contracts under FAR:
  
                    RESTRICTED RIGHTS LEGEND
  
 Use, reproduction and disclosure by the US Government is
 subject to restrictions as set forth in subparagraphs (a)
 and (c) of the Commercial Computer Software - Restricted
 Rights clause in FAR 52.227-19.
  
 Gaussian, Inc.
 340 Quinnipiac St., Bldg. 40, Wallingford CT 06492
  
  
 ---------------------------------------------------------------
 Warning -- This program may not be used in any manner that
 competes with the business of Gaussian, Inc. or will provide
 assistance to any competitor of Gaussian, Inc.  The licensee
 of this program is prohibited from giving any competitor of
 Gaussian, Inc. access to this program.  By using this program,
 the user acknowledges that Gaussian, Inc. is engaged in the
 business of creating and licensing software in the field of
 computational chemistry and represents and warrants to the
 licensee that it is not a competitor of Gaussian, Inc. and that
 it will not use this program in any manner prohibited above.
 ---------------------------------------------------------------
  

 Cite this work as:
 Gaussian 16, Revision C.01,
 M. J. Frisch, G. W. Trucks, H. B. Schlegel, G. E. Scuseria, 
 M. A. Robb, J. R. Cheeseman, G. Scalmani, V. Barone, 
 G. A. Petersson, H. Nakatsuji, X. Li, M. Caricato, A. V. Marenich, 
 J. Bloino, B. G. Janesko, R. Gomperts, B. Mennucci, H. P. Hratchian, 
 J. V. Ortiz, A. F. Izmaylov, J. L. Sonnenberg, D. Williams-Young, 
 F. Ding, F. Lipparini, F. Egidi, J. Goings, B. Peng, A. Petrone, 
 T. Henderson, D. Ranasinghe, V. G. Zakrzewski, J. Gao, N. Rega, 
 G. Zheng, W. Liang, M. Hada, M. Ehara, K. Toyota, R. Fukuda, 
 J. Hasegawa, M. Ishida, T. Nakajima, Y. Honda, O. Kitao, H. Nakai, 
 T. Vreven, K. Throssell, J. A. Montgomery, Jr., J. E. Peralta, 
 F. Ogliaro, M. J. Bearpark, J. J. Heyd, E. N. Brothers, K. N. Kudin, 
 V. N. Staroverov, T. A. Keith, R. Kobayashi, J. Normand, 
 K. Raghavachari, A. P. Rendell, J. C. Burant, S. S. Iyengar, 
 J. Tomasi, M. Cossi, J. M. Millam, M. Klene, C. Adamo, R. Cammi, 
 J. W. Ochterski, R. L. Martin, K. Morokuma, O. Farkas, 
 J. B. Foresman, and D. J. Fox, Gaussian, Inc., Wallingford CT, 2019.
 
 ******************************************
 Gaussian 16:  ES64L-G16RevC.01  3-Jul-2019
                22-May-2025 
 ******************************************
 %NProcShared=16
 Will use up to   16 processors via shared memory.
 %Chk=OBn_trans_NMR.chk
 ----------------------------------------------------------------------
 #n nmr=giao wb97xd/aug-cc-pvdz scrf=(cpcm,solvent=Chloroform) integral
 =(acc2e=14,grid=superfinegrid)
 ----------------------------------------------------------------------
 1/38=1,172=1/1;
 2/12=2,17=6,18=5,40=1/2;
 3/5=16,7=10,11=2,25=1,27=14,30=1,70=2101,72=7,74=-58,75=-7/1,2,3,8;
 4//1;
 5/5=2,38=5,53=7,87=14/2;
 8/6=1,10=90,11=11,87=14/1;
 10/13=100,45=16,87=14/2;
 6/7=2,8=2,9=2,10=2,28=1,87=14/1;
 99/9=1/99;
 -------------
 OBn trans NMR
 -------------
 Symbolic Z-matrix:
 Charge =  0 Multiplicity = 1
 C                     5.8925   -0.1216    0.48588 
 C                     4.92271   0.87741   0.59359 
 C                     3.56446   0.56268   0.49035 
 C                     3.16474  -0.76073   0.27532 
 C                     4.14264  -1.76237   0.18149 
 C                     5.49865  -1.44716   0.28016 
 H                     6.94631   0.12776   0.56943 
 H                     6.24328  -2.23469   0.20805 
 H                     2.82236   1.34742   0.58836 
 H                     5.21914   1.90869   0.76137 
 H                     3.84405  -2.79898   0.0366 
 C                     1.71065  -1.16534   0.11551 
 C                     1.24553  -1.30611  -1.3553 
 O                     0.81048  -0.27261   0.80458 
 H                     1.56935  -2.13868   0.60032 
 S                     0.73178   0.34972  -1.96273 
 H                    -2.63292   2.10498  -0.51233 
 P                    -0.05148   0.85954  -0.03435 
 C                    -2.82487   1.08173  -0.20503 
 S                     0.18189   2.73045   0.45262 
 C                    -1.75223   0.24369   0.12483 
 H                    -4.9488    1.30499  -0.38652 
 C                    -4.14253   0.62979  -0.12705 
 H                    -6.83673   0.45868   0.74544 
 C                    -2.02595  -1.06851   0.55352 
 C                    -4.40133  -0.6831    0.29421 
 H                    -1.21332  -1.72307   0.84816 
 C                    -3.33374  -1.5277    0.63913 
 C                    -6.77729  -0.42001   0.09218 
 O                    -5.64431  -1.2243    0.41027 
 H                    -6.75572  -0.09958  -0.95633 
 H                    -7.64662  -1.05631   0.25951 
 H                    -3.55447  -2.53335   0.98156 
 H                     0.40487  -2.00202  -1.42851 
 H                     2.05971  -1.66234  -1.98968 
 
                          Input orientation:                          
 ---------------------------------------------------------------------
 Center     Atomic      Atomic             Coordinates (Angstroms)
 Number     Number       Type             X           Y           Z
 ---------------------------------------------------------------------
      1          6           0        5.892500   -0.121600    0.485880
      2          6           0        4.922710    0.877410    0.593590
      3          6           0        3.564460    0.562680    0.490350
      4          6           0        3.164740   -0.760730    0.275320
      5          6           0        4.142640   -1.762370    0.181490
      6          6           0        5.498650   -1.447160    0.280160
      7          1           0        6.946310    0.127760    0.569430
      8          1           0        6.243280   -2.234690    0.208050
      9          1           0        2.822360    1.347420    0.588360
     10          1           0        5.219140    1.908690    0.761370
     11          1           0        3.844050   -2.798980    0.036600
     12          6           0        1.710650   -1.165340    0.115510
     13          6           0        1.245530   -1.306110   -1.355300
     14          8           0        0.810480   -0.272610    0.804580
     15          1           0        1.569350   -2.138680    0.600320
     16         16           0        0.731780    0.349720   -1.962730
     17          1           0       -2.632920    2.104980   -0.512330
     18         15           0       -0.051480    0.859540   -0.034350
     19          6           0       -2.824870    1.081730   -0.205030
     20         16           0        0.181890    2.730450    0.452620
     21          6           0       -1.752230    0.243690    0.124830
     22          1           0       -4.948800    1.304990   -0.386520
     23          6           0       -4.142530    0.629790   -0.127050
     24          1           0       -6.836730    0.458680    0.745440
     25          6           0       -2.025950   -1.068510    0.553520
     26          6           0       -4.401330   -0.683100    0.294210
     27          1           0       -1.213320   -1.723070    0.848160
     28          6           0       -3.333740   -1.527700    0.639130
     29          6           0       -6.777290   -0.420010    0.092180
     30          8           0       -5.644310   -1.224300    0.410270
     31          1           0       -6.755720   -0.099580   -0.956330
     32          1           0       -7.646620   -1.056310    0.259510
     33          1           0       -3.554470   -2.533350    0.981560
     34          1           0        0.404870   -2.002020   -1.428510
     35          1           0        2.059710   -1.662340   -1.989680
 ---------------------------------------------------------------------
                    Distance matrix (angstroms):
                    1          2          3          4          5
     1  C    0.000000
     2  C    1.396465   0.000000
     3  C    2.426526   1.398055   0.000000
     4  C    2.809537   2.423893   1.399081   0.000000
     5  C    2.418014   2.783303   2.415687   1.402988   0.000000
     6  C    1.398051   2.415279   2.797271   2.432765   1.395656
     7  H    1.086129   2.158128   3.410618   3.895663   3.403477
     8  H    2.159950   3.402604   3.883433   3.413868   2.153249
     9  H    3.405038   2.152303   1.084498   2.158591   3.402863
    10  H    2.156707   1.086075   2.150154   3.403323   3.869340
    11  H    3.400936   3.871639   3.403648   2.161692   1.088444
    12  C    4.326019   3.836498   2.561868   1.517770   2.505070
    13  C    5.136861   4.699743   3.503746   2.576767   3.311064
    14  O    5.094242   4.275219   2.894971   2.461893   3.702825
    15  H    4.771932   4.510196   3.360045   2.132989   2.634170
    16  S    5.731567   4.937319   3.753269   3.487300   4.548909
    17  H    8.867743   7.734179   6.464640   6.515025   7.832368
    18  P    6.046832   5.013701   3.665850   3.614587   4.950923
    19  C    8.827112   7.791312   6.447984   6.284968   7.535549
    20  S    6.383288   5.092053   4.017764   4.595342   5.995539
    21  C    7.661964   6.721321   5.338778   5.020767   6.227116
    22  H   10.969504   9.929257   8.590432   8.398498   9.611744
    23  C   10.081771   9.097209   7.731971   7.449271   8.629117
    24  H   12.745093  11.767872  10.404837  10.086495  11.215956
    25  C    7.975153   7.216099   5.823869   5.207244   6.218629
    26  C   10.310914   9.458464   8.065001   7.566492   8.612604
    27  H    7.293054   6.669195   5.308471   4.519032   5.397435
    28  C    9.334030   8.599744   7.209507   6.553689   7.494048
    29  C   12.679417  11.782390  10.395961   9.949552  11.002490
    30  O   11.589635  10.775560   9.380893   8.822271   9.804400
    31  H   12.730197  11.821273  10.442106  10.018463  11.083039
    32  H   13.573235  12.721593  11.329728  10.815411  11.810642
    33  H    9.762555   9.145840   7.778551   6.984894   7.776890
    34  H    6.108597   5.726332   4.499191   3.472855   4.076819
    35  H    4.815865   4.617400   3.655891   2.676605   3.010412
                    6          7          8          9         10
     6  C    0.000000
     7  H    2.158650   0.000000
     8  H    1.086222   2.491188   0.000000
     9  H    3.881648   4.300569   4.967780   0.000000
    10  H    3.401679   2.488306   4.303792   2.467693   0.000000
    11  H    2.150451   4.298108   2.470652   4.305917   4.957653
    12  C    3.802036   5.412050   4.657983   2.788091   4.709172
    13  C    4.558909   6.185423   5.318254   3.647661   5.532161
    14  O    4.861432   6.153373   5.806972   2.592086   4.918965
    15  H    4.002512   5.835187   4.691345   3.704466   5.452349
    16  S    5.566182   6.714275   6.462824   3.445866   5.476085
    17  H    8.908882   9.840795   9.906493   5.616538   7.957116
    18  P    6.018615   7.061807   7.018335   2.980730   5.432616
    19  C    8.712731   9.848137   9.664400   5.708876   8.143948
    20  S    6.763882   7.248794   7.839189   2.983836   5.113170
    21  C    7.447037   8.710666   8.371229   4.728631   7.195652
    22  H   10.824417  11.991387  11.753531   7.832185  10.250322
    23  C    9.870759  11.122027  10.778803   7.038217   9.490297
    24  H   12.490409  13.788135  13.365242   9.701162  12.142767
    25  C    7.539079   9.051672   8.358199   5.417014   7.835704
    26  C    9.929430  11.379902  10.757443   7.509410   9.974420
    27  H    6.741609   8.371548   7.501492   5.077609   7.387405
    28  C    8.840049  10.412725   9.612751   6.794590   9.218214
    29  C   12.320271  13.742817  13.146929   9.773601  12.238668
    30  O   11.145948  12.664008  11.932166   8.850421  11.311651
    31  H   12.390095  13.788591  13.224541   9.809154  12.262990
    32  H   13.151096  14.644169  13.939891  10.746423  13.212527
    33  H    9.144985  10.840560   9.832773   7.475222   9.836485
    34  H    5.401298   7.163670   6.067907   4.596822   6.577722
    35  H    4.126110   5.799341   4.760237   4.035664   5.504773
                   11         12         13         14         15
    11  H    0.000000
    12  C    2.688197   0.000000
    13  C    3.304293   1.549011   0.000000
    14  O    4.021801   1.442945   2.433613   0.000000
    15  H    2.434756   1.096539   2.149996   2.024802   0.000000
    16  S    4.857763   2.751849   1.837031   2.837515   3.669180
    17  H    8.142560   5.473187   5.233403   4.386820   6.075007
    18  P    5.344619   2.688438   2.849067   1.651830   3.466875
    19  C    7.719637   5.071786   4.857268   4.008655   5.507159
    20  S    6.645230   4.198563   4.549035   3.088263   5.065105
    21  C    6.370555   3.738581   3.685001   2.701131   4.115176
    22  H    9.712662   7.120593   6.791620   6.089076   7.437674
    23  C    8.693026   6.127075   5.855553   5.120016   6.388980
    24  H   11.189006   8.723070   8.535252   7.682324   8.799405
    25  C    6.141550   3.763430   3.795080   2.956657   3.751485
    26  C    8.516431   6.133579   5.915746   5.252803   6.153165
    27  H    5.233852   3.065524   3.327918   2.490281   2.824431
    28  C    7.314360   5.084423   4.999657   4.333265   4.941163
    29  C   10.884643   8.520633   8.200367   7.622565   8.536887
    30  O    9.625395   7.361100   7.112934   6.536475   7.273864
    31  H   10.983069   8.600239   8.101536   7.770336   8.711365
    32  H   11.624203   9.359013   9.041037   8.510807   9.285568
    33  H    7.463351   5.508446   5.477868   4.918847   5.153119
    34  H    3.822257   2.188400   1.093782   2.853431   2.343254
    35  H    2.929442   2.191045   1.091891   3.361520   2.678704
                   16         17         18         19         20
    16  S    0.000000
    17  H    4.062734   0.000000
    18  P    2.142910   2.905756   0.000000
    19  C    4.034242   1.085504   2.787506   0.000000
    20  S    3.435720   3.040641   1.947282   3.491617   0.000000
    21  C    3.246453   2.155455   1.815808   1.400598   3.167371
    22  H    5.972099   2.453388   4.930131   2.143330   5.390739
    23  C    5.216039   2.145588   4.098545   1.395191   4.842458
    24  H    8.039179   4.686609   6.841665   4.169725   7.382934
    25  C    3.993490   3.402277   2.821613   2.416030   4.395092
    26  C    5.701694   3.398701   4.626974   2.418490   5.716933
    27  H    3.997621   4.303506   2.966238   3.401941   4.683685
    28  C    5.179077   3.874709   4.114088   2.789387   5.525059
    29  C    7.823124   4.890482   6.847611   4.238535   7.647581
    30  O    6.983065   4.582987   5.984966   3.693997   7.041765
    31  H    7.568181   4.696243   6.834968   4.172712   7.623952
    32  H    8.781393   5.977180   7.838558   5.294930   8.698414
    33  H    5.945828   4.959341   4.981437   3.874160   6.476709
    34  H    2.433710   5.189894   3.215659   4.630080   5.097513
    35  H    2.410915   6.196454   3.826267   5.879967   5.365412
                   21         22         23         24         25
    21  C    0.000000
    22  H    3.406743   0.000000
    23  C    2.434348   1.083186   0.000000
    24  H    5.126745   2.358358   2.837117   0.000000
    25  C    1.407326   3.880751   2.797733   5.051014   0.000000
    26  C    2.811647   2.171548   1.402896   2.727351   2.420374
    27  H    2.163741   4.964614   3.881656   6.032688   1.084264
    28  C    2.429712   3.418261   2.428155   4.028393   1.388704
    29  C    5.068806   2.558936   2.844662   1.096530   4.817532
    30  O    4.169503   2.741517   2.445753   2.089647   3.624544
    31  H    5.130463   2.358487   2.836979   1.792830   5.058577
    32  H    6.037547   3.642983   3.907814   1.785286   5.628368
    33  H    3.419650   4.306815   3.402982   4.447609   2.159942
    34  H    3.479822   6.378389   5.412861   7.951218   3.272426
    35  H    4.757624   7.777813   6.869573   9.546007   4.849033
                   26         27         28         29         30
    26  C    0.000000
    27  H    3.398795   0.000000
    28  C    1.404303   2.139636   0.000000
    29  C    2.399004   5.764307   3.658438   0.000000
    30  O    1.360649   4.480423   2.341615   1.425380   0.000000
    31  H    2.729010   6.050628   4.036702   1.096592   2.089934
    32  H    3.266863   6.494492   4.355141   1.090235   2.014992
    33  H    2.147800   2.480994   1.085040   3.955221   2.531287
    34  H    5.273222   2.807059   4.298525   7.509905   6.370129
    35  H    6.922435   4.332407   6.001506   9.163520   8.081062
                   31         32         33         34         35
    31  H    0.000000
    32  H    1.785302   0.000000
    33  H    4.463928   4.410067   0.000000
    34  H    7.424034   8.280717   4.665525   0.000000
    35  H    9.012316   9.981932   6.411392   1.780109   0.000000
 Stoichiometry    C15H15O2PS2
 Framework group  C1[X(C15H15O2PS2)]
 Deg. of freedom    99
 Full point group                 C1      NOp   1
 Largest Abelian subgroup         C1      NOp   1
 Largest concise Abelian subgroup C1      NOp   1
                         Standard orientation:                         
 ---------------------------------------------------------------------
 Center     Atomic      Atomic             Coordinates (Angstroms)
 Number     Number       Type             X           Y           Z
 ---------------------------------------------------------------------
      1          6           0       -5.892500   -0.121599   -0.485880
      2          6           0       -4.922710    0.877411   -0.593590
      3          6           0       -3.564460    0.562680   -0.490350
      4          6           0       -3.164740   -0.760730   -0.275320
      5          6           0       -4.142640   -1.762369   -0.181490
      6          6           0       -5.498650   -1.447159   -0.280160
      7          1           0       -6.946310    0.127761   -0.569430
      8          1           0       -6.243280   -2.234689   -0.208050
      9          1           0       -2.822360    1.347420   -0.588360
     10          1           0       -5.219140    1.908691   -0.761370
     11          1           0       -3.844051   -2.798980   -0.036600
     12          6           0       -1.710650   -1.165340   -0.115510
     13          6           0       -1.245530   -1.306110    1.355300
     14          8           0       -0.810480   -0.272610   -0.804580
     15          1           0       -1.569350   -2.138680   -0.600320
     16         16           0       -0.731780    0.349720    1.962730
     17          1           0        2.632921    2.104979    0.512330
     18         15           0        0.051480    0.859540    0.034350
     19          6           0        2.824870    1.081729    0.205030
     20         16           0       -0.181889    2.730450   -0.452620
     21          6           0        1.752230    0.243689   -0.124830
     22          1           0        4.948800    1.304989    0.386520
     23          6           0        4.142530    0.629789    0.127050
     24          1           0        6.836730    0.458678   -0.745440
     25          6           0        2.025950   -1.068511   -0.553520
     26          6           0        4.401330   -0.683101   -0.294210
     27          1           0        1.213320   -1.723071   -0.848160
     28          6           0        3.333740   -1.527701   -0.639130
     29          6           0        6.777290   -0.420012   -0.092180
     30          8           0        5.644310   -1.224302   -0.410270
     31          1           0        6.755720   -0.099582    0.956330
     32          1           0        7.646620   -1.056312   -0.259510
     33          1           0        3.554470   -2.533351   -0.981560
     34          1           0       -0.404870   -2.002020    1.428510
     35          1           0       -2.059710   -1.662340    1.989680
 ---------------------------------------------------------------------
 Rotational constants (GHZ):           0.6977647           0.1267247           0.1171494
 Standard basis: Aug-CC-pVDZ (5D, 7F)
 There are   647 symmetry adapted cartesian basis functions of A   symmetry.
 There are   607 symmetry adapted basis functions of A   symmetry.
   607 basis functions,  1139 primitive gaussians,   647 cartesian basis functions
    84 alpha electrons       84 beta electrons
       nuclear repulsion energy      1918.0301252532 Hartrees.
 NAtoms=   35 NActive=   35 NUniq=   35 SFac= 1.00D+00 NAtFMM=   60 NAOKFM=F Big=F
 Integral buffers will be    131072 words long.
 Raffenetti 2 integral format.
 Two-electron integral symmetry is turned on.
 Nuclear repulsion after empirical dispersion term =     1918.0046692352 Hartrees.
 Force PCM accuracy= 1.00D-14.
 ------------------------------------------------------------------------------
 Polarizable Continuum Model (PCM)
 =================================
 Model                : C-PCM.
 Atomic radii         : UFF (Universal Force Field).
 Polarization charges : Total charges.
 Charge compensation  : None.
 Solution method      : On-the-fly selection.
 Cavity type          : Scaled VdW (van der Waals Surface) (Alpha=1.100).
 Cavity algorithm     : GePol (No added spheres)
                        Default sphere list used, NSphG=   35.
                        Lebedev-Laikov grids with approx.  5.0 points / Ang**2.
                        Smoothing algorithm: York/Karplus (Gamma=1.0000).
                        Polarization charges: spherical gaussians, with
                                              point-specific exponents (IZeta= 3).
                        Self-potential: point-specific (ISelfS= 7).
                        Self-field    : sphere-specific E.n sum rule (ISelfD= 2).
 Solvent              : Chloroform, Eps=   4.711300 Eps(inf)=   2.090627
 ------------------------------------------------------------------------------
 One-electron integrals computed using PRISM.
 NBasis=   607 RedAO= T EigKep=  1.19D-06  NBF=   607
 NBsUse=   607 1.00D-06 EigRej= -1.00D+00 NBFU=   607
 ExpMin= 2.97D-02 ExpMax= 1.11D+05 ExpMxC= 3.24D+03 IAcc=3 IRadAn=         7 AccDes= 0.00D+00
 Harris functional with IExCor= 4639 and IRadAn=       7 diagonalized for initial guess.
 HarFok:  IExCor= 4639 AccDes= 0.00D+00 IRadAn=         7 IDoV= 1 UseB2=F ITyADJ=14
 ICtDFT=  3500011 ScaDFX=  1.000000  1.000000  1.000000  1.000000
 FoFCou: FMM=F IPFlag=           0 FMFlag=      100000 FMFlg1=           0
         NFxFlg=           0 DoJE=T BraDBF=F KetDBF=T FulRan=T
         wScrn=  0.000000 ICntrl=       500 IOpCl=  0 I1Cent=   200000004 NGrid=           0
         NMat0=    1 NMatS0=      1 NMatT0=    0 NMatD0=    1 NMtDS0=    0 NMtDT0=    0
 Petite list used in FoFCou.
 Requested convergence on RMS density matrix=1.00D-08 within 128 cycles.
 Requested convergence on MAX density matrix=1.00D-06.
 Requested convergence on             energy=1.00D-06.
 No special actions if energy rises.
 Inv3:  Mode=1 IEnd=    25038963.
 Iteration    1 A*A^-1 deviation from unit magnitude is 3.55D-15 for    779.
 Iteration    1 A*A^-1 deviation from orthogonality  is 3.24D-15 for   2051   1856.
 Iteration    1 A^-1*A deviation from unit magnitude is 3.55D-15 for    779.
 Iteration    1 A^-1*A deviation from orthogonality  is 2.53D-15 for   2342   2212.
 Error on total polarization charges =  0.01809
 SCF Done:  E(RwB97XD) =  -1868.71319807     A.U. after   16 cycles
            NFock= 16  Conv=0.55D-08     -V/T= 2.0041
 DoSCS=F DFT=T ScalE2(SS,OS)=  1.000000  1.000000
 Range of M.O.s used for correlation:     1   607
 NBasis=   607 NAE=    84 NBE=    84 NFC=     0 NFV=     0
 NROrb=    607 NOA=    84 NOB=    84 NVA=   523 NVB=   523

 **** Warning!!: The largest alpha MO coefficient is  0.14178791D+03

 NEqPCM:  Using equilibrium solvation (IEInf=0, Eps=   4.7113, EpsInf=   2.0906)
          Differentiating once with respect to magnetic field using GIAOs.
          Electric field/nuclear overlap derivatives assumed to be zero.
 FoFJK:  IHMeth= 1 ICntrl=    6127 DoSepK=T KAlg= 0 I1Cent=           0 FoldK=F
 IRaf=         1 NMat=       1 IRICut=       1 DoRegI=T DoRafI=F ISym2E= 0 IDoP0=0 IntGTp=1.
          There are     3 degrees of freedom in the 1st order CPHF.  IDoFFX=0 NUNeed=     3.
      3 vectors produced by pass  0 Test12= 1.46D-12 3.33D-08 XBig12= 9.61D+02 4.74D+00.
 AX will form     3 AO Fock derivatives at one time.
      3 vectors produced by pass  1 Test12= 1.46D-12 3.33D-08 XBig12= 7.29D+00 3.96D-01.
      3 vectors produced by pass  2 Test12= 1.46D-12 3.33D-08 XBig12= 1.45D-01 7.70D-02.
      3 vectors produced by pass  3 Test12= 1.46D-12 3.33D-08 XBig12= 3.24D-03 1.06D-02.
      3 vectors produced by pass  4 Test12= 1.46D-12 3.33D-08 XBig12= 4.13D-05 1.02D-03.
      3 vectors produced by pass  5 Test12= 1.46D-12 3.33D-08 XBig12= 4.40D-07 1.30D-04.
      3 vectors produced by pass  6 Test12= 1.46D-12 3.33D-08 XBig12= 6.71D-09 1.93D-05.
      3 vectors produced by pass  7 Test12= 1.46D-12 3.33D-08 XBig12= 1.08D-10 2.21D-06.
      3 vectors produced by pass  8 Test12= 1.46D-12 3.33D-08 XBig12= 1.60D-12 2.37D-07.
      1 vectors produced by pass  9 Test12= 1.46D-12 3.33D-08 XBig12= 2.84D-14 3.44D-08.
 InvSVY:  IOpt=1 It=  1 EMax= 7.11D-15
 Solved reduced A of dimension    28 with     3 vectors.
 Calculating GIAO nuclear magnetic shielding tensors.
 SCF GIAO Magnetic shielding tensor (ppm):
      1  C    Isotropic =    67.2868   Anisotropy =   179.8981
   XX=   -32.2129   YX=    21.1356   ZX=   -12.5638
   XY=    19.6003   YY=    50.1470   ZY=    20.6972
   XZ=    -8.1235   YZ=    20.1689   ZZ=   183.9262
   Eigenvalues:   -37.9664    52.6079   187.2188
      2  C    Isotropic =    67.1052   Anisotropy =   180.0378
   XX=    46.0003   YX=    24.0713   ZX=    -8.8297
   XY=    24.7700   YY=   -26.6045   ZY=    32.8320
   XZ=   -10.2455   YZ=    32.3272   ZZ=   181.9199
   Eigenvalues:   -39.2635    53.4488   187.1304
      3  C    Isotropic =    66.9869   Anisotropy =   179.1842
   XX=    15.5375   YX=   -41.5909   ZX=     3.2047
   XY=   -40.4940   YY=     4.6394   ZY=    28.8588
   XZ=    -7.7753   YZ=    32.2640   ZZ=   180.7838
   Eigenvalues:   -33.5255    48.0432   186.4430
      4  C    Isotropic =    52.9524   Anisotropy =   175.7644
   XX=   -30.7394   YX=    16.9921   ZX=   -14.9275
   XY=    13.9541   YY=    21.1863   ZY=    18.3225
   XZ=   -12.2301   YZ=     5.5197   ZZ=   168.4103
   Eigenvalues:   -36.2978    25.0263   170.1286
      5  C    Isotropic =    70.1274   Anisotropy =   167.5509
   XX=    54.6602   YX=    19.1424   ZX=    -7.0691
   XY=    23.5244   YY=   -21.6644   ZY=    28.8505
   XZ=   -20.9372   YZ=    24.0014   ZZ=   177.3863
   Eigenvalues:   -31.2914    59.8455   181.8280
      6  C    Isotropic =    67.1129   Anisotropy =   179.0553
   XX=    10.7497   YX=   -46.7532   ZX=    -1.3633
   XY=   -47.0920   YY=     7.3816   ZY=    22.6617
   XZ=    -2.1499   YZ=    22.9932   ZZ=   183.2073
   Eigenvalues:   -38.9430    53.7986   186.4830
      7  H    Isotropic =    23.7710   Anisotropy =     4.4712
   XX=    24.2943   YX=     0.8824   ZX=     0.1681
   XY=     0.8744   YY=    26.3662   ZY=    -0.7240
   XZ=     0.4009   YZ=    -0.7977   ZZ=    20.6525
   Eigenvalues:    20.5101    24.0510    26.7518
      8  H    Isotropic =    23.7373   Anisotropy =     5.0215
   XX=    26.1829   YX=    -1.4563   ZX=     0.6324
   XY=    -1.3372   YY=    24.6173   ZY=    -0.5461
   XZ=     0.4886   YZ=    -0.4966   ZZ=    20.4118
   Eigenvalues:    20.3203    23.8067    27.0850
      9  H    Isotropic =    23.0190   Anisotropy =    11.0457
   XX=    29.0205   YX=    -2.4686   ZX=     2.2631
   XY=    -2.4598   YY=    22.5230   ZY=    -1.1479
   XZ=     2.1851   YZ=    -2.0187   ZZ=    17.5134
   Eigenvalues:    16.8584    21.8158    30.3828
     10  H    Isotropic =    23.6430   Anisotropy =     6.8863
   XX=    28.1370   YX=     0.5774   ZX=     0.5620
   XY=     0.6112   YY=    22.8775   ZY=    -0.4183
   XZ=     0.5535   YZ=    -0.5192   ZZ=    19.9145
   Eigenvalues:    19.7922    22.9029    28.2339
     11  H    Isotropic =    23.8690   Anisotropy =     9.1685
   XX=    28.6488   YX=     3.0958   ZX=     0.6952
   XY=     2.7347   YY=    23.0518   ZY=     0.3817
   XZ=     0.9325   YZ=     0.6540   ZZ=    19.9065
   Eigenvalues:    19.8043    21.8214    29.9813
     12  C    Isotropic =   108.7391   Anisotropy =    70.6111
   XX=   123.6436   YX=    37.7511   ZX=   -15.7931
   XY=    27.0810   YY=   109.5127   ZY=   -18.6322
   XZ=   -10.0190   YZ=   -11.3966   ZZ=    93.0610
   Eigenvalues:    81.3166    89.0876   155.8132
     13  C    Isotropic =   145.8562   Anisotropy =    36.5006
   XX=   119.7054   YX=    11.0319   ZX=    16.2299
   XY=    23.8831   YY=   150.7868   ZY=     1.0151
   XZ=     8.7928   YZ=    -8.8334   ZZ=   167.0763
   Eigenvalues:   108.9565   158.4221   170.1899
     14  O    Isotropic =   202.6376   Anisotropy =    97.0534
   XX=   169.4024   YX=    24.1038   ZX=    18.5496
   XY=     4.8759   YY=   175.6972   ZY=    24.0367
   XZ=     1.8505   YZ=     8.1619   ZZ=   262.8132
   Eigenvalues:   157.6718   182.9011   267.3399
     15  H    Isotropic =    25.3250   Anisotropy =     8.2110
   XX=    25.8953   YX=     2.3146   ZX=     0.5817
   XY=     2.2038   YY=    28.9902   ZY=     2.9882
   XZ=    -1.3774   YZ=     2.8305   ZZ=    21.0895
   Eigenvalues:    19.9229    25.2530    30.7990
     16  S    Isotropic =   491.4773   Anisotropy =   413.6715
   XX=   509.8864   YX=     8.2366   ZX=  -169.4385
   XY=    64.1975   YY=   434.2712   ZY=  -197.5736
   XZ=  -114.5666   YZ=  -218.5978   ZZ=   530.2742
   Eigenvalues:   252.1323   455.0413   767.2582
     17  H    Isotropic =    23.0980   Anisotropy =    11.6523
   XX=    30.7155   YX=     0.7480   ZX=     1.5172
   XY=     0.3035   YY=    20.3232   ZY=    -0.0354
   XZ=     1.0061   YZ=    -0.3124   ZZ=    18.2553
   Eigenvalues:    18.1057    20.3221    30.8662
     18  P    Isotropic =   254.2723   Anisotropy =   175.2011
   XX=   157.3677   YX=    -5.3732   ZX=    77.4466
   XY=     1.4912   YY=   365.9979   ZY=   -14.3888
   XZ=    83.8087   YZ=   -29.3939   ZZ=   239.4513
   Eigenvalues:   107.5634   284.1804   371.0730
     19  C    Isotropic =    59.8043   Anisotropy =   187.8108
   XX=    36.8350   YX=    13.8245   ZX=    -2.2063
   XY=     9.7106   YY=   -22.1685   ZY=   -66.0430
   XZ=     4.1279   YZ=   -63.3893   ZZ=   164.7463
   Eigenvalues:   -44.0294    38.4308   185.0115
     20  S    Isotropic =   627.6369   Anisotropy =   123.2598
   XX=   643.8810   YX=   -66.2740   ZX=     9.4908
   XY=   -27.6590   YY=   623.9185   ZY=   -52.4066
   XZ=     7.1305   YZ=   -75.9024   ZZ=   615.1113
   Eigenvalues:   547.2606   625.8401   709.8101
     21  C    Isotropic =    62.3717   Anisotropy =   143.2799
   XX=     1.4357   YX=    18.6172   ZX=    -2.5298
   XY=    17.5512   YY=    44.6044   ZY=   -38.6740
   XZ=   -11.7414   YZ=   -45.3217   ZZ=   141.0750
   Eigenvalues:    -5.6433    34.8667   157.8916
     22  H    Isotropic =    24.2524   Anisotropy =     8.0974
   XX=    27.2616   YX=    -3.2882   ZX=    -0.7253
   XY=    -2.6803   YY=    25.3155   ZY=     1.5650
   XZ=    -0.6479   YZ=     1.4659   ZZ=    20.1800
   Eigenvalues:    19.7636    23.3429    29.6506
     23  C    Isotropic =    84.8841   Anisotropy =   152.5694
   XX=    35.6659   YX=   -36.3260   ZX=   -19.5028
   XY=   -21.2215   YY=    49.0048   ZY=   -46.1876
   XZ=   -15.0671   YZ=   -48.3460   ZZ=   169.9817
   Eigenvalues:     1.2041    66.8512   186.5971
     24  H    Isotropic =    27.7505   Anisotropy =     8.2771
   XX=    29.4105   YX=     4.2920   ZX=    -1.7366
   XY=     2.4349   YY=    28.8958   ZY=    -1.9408
   XZ=    -2.1506   YZ=    -1.1758   ZZ=    24.9452
   Eigenvalues:    24.1852    25.7977    33.2686
     25  C    Isotropic =    64.8846   Anisotropy =   176.3823
   XX=    11.6631   YX=   -36.2504   ZX=   -25.1611
   XY=   -31.1424   YY=    24.5703   ZY=   -58.8624
   XZ=   -16.3840   YZ=   -63.4553   ZZ=   158.4203
   Eigenvalues:   -33.1583    45.3393   182.4728
     26  C    Isotropic =    30.9636   Anisotropy =   139.5443
   XX=   -41.3236   YX=    17.7452   ZX=    -2.8695
   XY=    22.0376   YY=    21.5700   ZY=   -33.1993
   XZ=    -3.1263   YZ=   -33.3031   ZZ=   112.6445
   Eigenvalues:   -47.3656    16.2633   123.9931
     27  H    Isotropic =    23.5709   Anisotropy =    11.7146
   XX=    27.4932   YX=    -4.8328   ZX=    -2.1528
   XY=    -4.3139   YY=    23.9089   ZY=     1.8682
   XZ=    -2.2293   YZ=     2.4975   ZZ=    19.3107
   Eigenvalues:    18.4167    20.9154    31.3807
     28  C    Isotropic =    79.8908   Anisotropy =   141.3692
   XX=    66.1740   YX=    14.0559   ZX=    -0.8099
   XY=    12.5483   YY=    17.1674   ZY=   -54.0417
   XZ=    -0.0107   YZ=   -51.0347   ZZ=   156.3309
   Eigenvalues:    -2.7056    68.2410   174.1369
     29  C    Isotropic =   141.6320   Anisotropy =    71.3723
   XX=   167.6881   YX=    33.1184   ZX=    13.0342
   XY=    29.4419   YY=   133.9843   ZY=     5.6782
   XZ=    12.0638   YZ=     5.7448   ZZ=   123.2236
   Eigenvalues:   114.8948   120.7876   189.2135
     30  O    Isotropic =   234.9313   Anisotropy =    84.2365
   XX=   215.5122   YX=   -44.6869   ZX=   -18.4308
   XY=   -80.3678   YY=   209.7243   ZY=   -30.9937
   XZ=   -32.0728   YZ=   -29.9413   ZZ=   279.5575
   Eigenvalues:   138.9384   274.7666   291.0890
     31  H    Isotropic =    27.7369   Anisotropy =     8.1550
   XX=    28.8788   YX=     2.1835   ZX=     4.0528
   XY=     0.4274   YY=    25.9619   ZY=     2.6009
   XZ=     3.2195   YZ=     2.0460   ZZ=    28.3699
   Eigenvalues:    24.2544    25.7827    33.1735
     32  H    Isotropic =    27.4071   Anisotropy =     8.7458
   XX=    33.1623   YX=    -1.8411   ZX=    -0.1353
   XY=     0.3659   YY=    25.8479   ZY=     0.9671
   XZ=     0.5792   YZ=     0.8757   ZZ=    23.2112
   Eigenvalues:    22.9026    26.0812    33.2376
     33  H    Isotropic =    24.2409   Anisotropy =     6.7623
   XX=    28.7176   YX=     0.4158   ZX=     0.4341
   XY=     0.0644   YY=    23.4212   ZY=     1.1172
   XZ=     0.2530   YZ=     1.5335   ZZ=    20.5840
   Eigenvalues:    20.0550    23.9186    28.7491
     34  H    Isotropic =    27.5943   Anisotropy =     9.9090
   XX=    26.5446   YX=    -3.3227   ZX=     1.7441
   XY=    -2.1374   YY=    32.8026   ZY=    -0.6892
   XZ=     1.3508   YZ=    -2.4178   ZZ=    23.4356
   Eigenvalues:    22.7769    25.8057    34.2003
     35  H    Isotropic =    28.3821   Anisotropy =    10.5269
   XX=    28.0786   YX=     4.4038   ZX=    -1.5674
   XY=     5.2669   YY=    28.6011   ZY=    -2.8397
   XZ=    -1.1968   YZ=    -5.1445   ZZ=    28.4667
   Eigenvalues:    22.7845    26.9618    35.4001
 End of Minotr F.D. properties file   721 does not exist.
 End of Minotr F.D. properties file   722 does not exist.
 End of Minotr F.D. properties file   788 does not exist.

 **********************************************************************

            Population analysis using the SCF Density.

 **********************************************************************

 Orbital symmetries:
       Occupied  (A) (A) (A) (A) (A) (A) (A) (A) (A) (A) (A) (A)
                 (A) (A) (A) (A) (A) (A) (A) (A) (A) (A) (A) (A)
                 (A) (A) (A) (A) (A) (A) (A) (A) (A) (A) (A) (A)
                 (A) (A) (A) (A) (A) (A) (A) (A) (A) (A) (A) (A)
                 (A) (A) (A) (A) (A) (A) (A) (A) (A) (A) (A) (A)
                 (A) (A) (A) (A) (A) (A) (A) (A) (A) (A) (A) (A)
                 (A) (A) (A) (A) (A) (A) (A) (A) (A) (A) (A) (A)
       Virtual   (A) (A) (A) (A) (A) (A) (A) (A) (A) (A) (A) (A)
                 (A) (A) (A) (A) (A) (A) (A) (A) (A) (A) (A) (A)
                 (A) (A) (A) (A) (A) (A) (A) (A) (A) (A) (A) (A)
                 (A) (A) (A) (A) (A) (A) (A) (A) (A) (A) (A) (A)
                 (A) (A) (A) (A) (A) (A) (A) (A) (A) (A) (A) (A)
                 (A) (A) (A) (A) (A) (A) (A) (A) (A) (A) (A) (A)
                 (A) (A) (A) (A) (A) (A) (A) (A) (A) (A) (A) (A)
                 (A) (A) (A) (A) (A) (A) (A) (A) (A) (A) (A) (A)
                 (A) (A) (A) (A) (A) (A) (A) (A) (A) (A) (A) (A)
                 (A) (A) (A) (A) (A) (A) (A) (A) (A) (A) (A) (A)
                 (A) (A) (A) (A) (A) (A) (A) (A) (A) (A) (A) (A)
                 (A) (A) (A) (A) (A) (A) (A) (A) (A) (A) (A) (A)
                 (A) (A) (A) (A) (A) (A) (A) (A) (A) (A) (A) (A)
                 (A) (A) (A) (A) (A) (A) (A) (A) (A) (A) (A) (A)
                 (A) (A) (A) (A) (A) (A) (A) (A) (A) (A) (A) (A)
                 (A) (A) (A) (A) (A) (A) (A) (A) (A) (A) (A) (A)
                 (A) (A) (A) (A) (A) (A) (A) (A) (A) (A) (A) (A)
                 (A) (A) (A) (A) (A) (A) (A) (A) (A) (A) (A) (A)
                 (A) (A) (A) (A) (A) (A) (A) (A) (A) (A) (A) (A)
                 (A) (A) (A) (A) (A) (A) (A) (A) (A) (A) (A) (A)
                 (A) (A) (A) (A) (A) (A) (A) (A) (A) (A) (A) (A)
                 (A) (A) (A) (A) (A) (A) (A) (A) (A) (A) (A) (A)
                 (A) (A) (A) (A) (A) (A) (A) (A) (A) (A) (A) (A)
                 (A) (A) (A) (A) (A) (A) (A) (A) (A) (A) (A) (A)
                 (A) (A) (A) (A) (A) (A) (A) (A) (A) (A) (A) (A)
                 (A) (A) (A) (A) (A) (A) (A) (A) (A) (A) (A) (A)
                 (A) (A) (A) (A) (A) (A) (A) (A) (A) (A) (A) (A)
                 (A) (A) (A) (A) (A) (A) (A) (A) (A) (A) (A) (A)
                 (A) (A) (A) (A) (A) (A) (A) (A) (A) (A) (A) (A)
                 (A) (A) (A) (A) (A) (A) (A) (A) (A) (A) (A) (A)
                 (A) (A) (A) (A) (A) (A) (A) (A) (A) (A) (A) (A)
                 (A) (A) (A) (A) (A) (A) (A) (A) (A) (A) (A) (A)
                 (A) (A) (A) (A) (A) (A) (A) (A) (A) (A) (A) (A)
                 (A) (A) (A) (A) (A) (A) (A) (A) (A) (A) (A) (A)
                 (A) (A) (A) (A) (A) (A) (A) (A) (A) (A) (A) (A)
                 (A) (A) (A) (A) (A) (A) (A) (A) (A) (A) (A) (A)
                 (A) (A) (A) (A) (A) (A) (A) (A) (A) (A) (A) (A)
                 (A) (A) (A) (A) (A) (A) (A) (A) (A) (A) (A) (A)
                 (A) (A) (A) (A) (A) (A) (A) (A) (A) (A) (A) (A)
                 (A) (A) (A) (A) (A) (A) (A) (A) (A) (A) (A) (A)
                 (A) (A) (A) (A) (A) (A) (A) (A) (A) (A) (A) (A)
                 (A) (A) (A) (A) (A) (A) (A) (A) (A) (A) (A) (A)
                 (A) (A) (A) (A) (A) (A) (A) (A) (A) (A) (A) (A)
                 (A) (A) (A) (A) (A) (A) (A)
 The electronic state is 1-A.
 Alpha  occ. eigenvalues --  -89.06848 -89.01696 -77.38782 -19.31899 -19.31869
 Alpha  occ. eigenvalues --  -10.39065 -10.38387 -10.35433 -10.35249 -10.32837
 Alpha  occ. eigenvalues --  -10.32796 -10.32750 -10.32160 -10.31707 -10.31490
 Alpha  occ. eigenvalues --  -10.31192 -10.31043 -10.30895 -10.30844 -10.30773
 Alpha  occ. eigenvalues --   -8.08595  -8.03642  -6.80150  -6.03479  -6.03209
 Alpha  occ. eigenvalues --   -6.02530  -5.98635  -5.97907  -5.97787  -4.95114
 Alpha  occ. eigenvalues --   -4.94874  -4.94710  -1.18791  -1.17522  -0.97994
 Alpha  occ. eigenvalues --   -0.97199  -0.92052  -0.90669  -0.87479  -0.86768
 Alpha  occ. eigenvalues --   -0.85524  -0.84971  -0.80602  -0.79615  -0.73660
 Alpha  occ. eigenvalues --   -0.72712  -0.71439  -0.70672  -0.69320  -0.66076
 Alpha  occ. eigenvalues --   -0.64000  -0.62436  -0.59840  -0.59326  -0.57889
 Alpha  occ. eigenvalues --   -0.57380  -0.56873  -0.55124  -0.54215  -0.53949
 Alpha  occ. eigenvalues --   -0.52740  -0.52580  -0.51389  -0.51027  -0.50705
 Alpha  occ. eigenvalues --   -0.49017  -0.48040  -0.47061  -0.46628  -0.45912
 Alpha  occ. eigenvalues --   -0.44382  -0.44271  -0.43517  -0.42866  -0.42519
 Alpha  occ. eigenvalues --   -0.41842  -0.39962  -0.35281  -0.35181  -0.33891
 Alpha  occ. eigenvalues --   -0.33750  -0.33389  -0.33033  -0.30979
 Alpha virt. eigenvalues --    0.01262   0.03261   0.03288   0.03799   0.03894
 Alpha virt. eigenvalues --    0.04327   0.04512   0.04687   0.04931   0.05223
 Alpha virt. eigenvalues --    0.05860   0.05958   0.06177   0.06584   0.06874
 Alpha virt. eigenvalues --    0.07350   0.07357   0.07642   0.08513   0.08693
 Alpha virt. eigenvalues --    0.08960   0.09379   0.10062   0.10509   0.10963
 Alpha virt. eigenvalues --    0.11184   0.11516   0.12076   0.12345   0.12749
 Alpha virt. eigenvalues --    0.13032   0.13064   0.13398   0.13540   0.14219
 Alpha virt. eigenvalues --    0.14339   0.14429   0.14647   0.14969   0.15026
 Alpha virt. eigenvalues --    0.15143   0.15364   0.15767   0.16005   0.16185
 Alpha virt. eigenvalues --    0.16389   0.16452   0.16665   0.17365   0.17471
 Alpha virt. eigenvalues --    0.17907   0.17971   0.18159   0.18417   0.18532
 Alpha virt. eigenvalues --    0.18771   0.18861   0.19257   0.19724   0.19981
 Alpha virt. eigenvalues --    0.20175   0.20366   0.20594   0.21109   0.21352
 Alpha virt. eigenvalues --    0.21622   0.21832   0.22151   0.22492   0.22889
 Alpha virt. eigenvalues --    0.23177   0.23560   0.23772   0.24514   0.24669
 Alpha virt. eigenvalues --    0.24696   0.25265   0.25541   0.25836   0.26044
 Alpha virt. eigenvalues --    0.26439   0.26620   0.27113   0.27416   0.27734
 Alpha virt. eigenvalues --    0.27817   0.28042   0.28349   0.28783   0.29258
 Alpha virt. eigenvalues --    0.29593   0.29792   0.30002   0.30365   0.30491
 Alpha virt. eigenvalues --    0.30642   0.30876   0.31119   0.31489   0.31717
 Alpha virt. eigenvalues --    0.31905   0.32166   0.32356   0.32621   0.33061
 Alpha virt. eigenvalues --    0.33390   0.33696   0.33993   0.34212   0.34581
 Alpha virt. eigenvalues --    0.34608   0.35131   0.35258   0.35670   0.36006
 Alpha virt. eigenvalues --    0.36415   0.36605   0.37278   0.37486   0.38080
 Alpha virt. eigenvalues --    0.38104   0.38344   0.38604   0.39044   0.39643
 Alpha virt. eigenvalues --    0.39775   0.40002   0.40296   0.40529   0.40836
 Alpha virt. eigenvalues --    0.41105   0.41456   0.41601   0.42285   0.42405
 Alpha virt. eigenvalues --    0.42701   0.43170   0.43471   0.43556   0.44015
 Alpha virt. eigenvalues --    0.44841   0.45419   0.45626   0.46138   0.46272
 Alpha virt. eigenvalues --    0.46913   0.47501   0.47886   0.48484   0.48763
 Alpha virt. eigenvalues --    0.48800   0.49645   0.50148   0.50327   0.51154
 Alpha virt. eigenvalues --    0.51397   0.51966   0.52221   0.52734   0.52917
 Alpha virt. eigenvalues --    0.53088   0.53960   0.54504   0.54776   0.55309
 Alpha virt. eigenvalues --    0.55347   0.55732   0.56310   0.56824   0.57179
 Alpha virt. eigenvalues --    0.57486   0.58028   0.58172   0.58463   0.58577
 Alpha virt. eigenvalues --    0.59190   0.59358   0.59843   0.60256   0.60775
 Alpha virt. eigenvalues --    0.60832   0.61488   0.61734   0.61966   0.62119
 Alpha virt. eigenvalues --    0.62689   0.62857   0.63097   0.63338   0.63666
 Alpha virt. eigenvalues --    0.63876   0.64164   0.64459   0.65060   0.65444
 Alpha virt. eigenvalues --    0.65666   0.66098   0.66502   0.66981   0.67159
 Alpha virt. eigenvalues --    0.67634   0.68175   0.68308   0.68941   0.69326
 Alpha virt. eigenvalues --    0.69533   0.70080   0.70404   0.70932   0.71194
 Alpha virt. eigenvalues --    0.71268   0.71704   0.72003   0.72446   0.72720
 Alpha virt. eigenvalues --    0.72844   0.73214   0.73665   0.73787   0.74410
 Alpha virt. eigenvalues --    0.74626   0.74922   0.75372   0.75554   0.75837
 Alpha virt. eigenvalues --    0.76024   0.76317   0.76507   0.77511   0.77836
 Alpha virt. eigenvalues --    0.78145   0.78935   0.79051   0.79696   0.79871
 Alpha virt. eigenvalues --    0.80624   0.80851   0.81119   0.82011   0.82262
 Alpha virt. eigenvalues --    0.82877   0.83093   0.83808   0.84132   0.84813
 Alpha virt. eigenvalues --    0.85210   0.85276   0.85569   0.85905   0.85995
 Alpha virt. eigenvalues --    0.86378   0.87161   0.87391   0.87838   0.88031
 Alpha virt. eigenvalues --    0.88265   0.88464   0.88988   0.89759   0.89947
 Alpha virt. eigenvalues --    0.90143   0.90814   0.91832   0.92164   0.92965
 Alpha virt. eigenvalues --    0.93513   0.94161   0.94494   0.95116   0.96005
 Alpha virt. eigenvalues --    0.96238   0.96714   0.97623   0.98005   0.98533
 Alpha virt. eigenvalues --    0.99444   1.00245   1.00881   1.01726   1.02314
 Alpha virt. eigenvalues --    1.03527   1.04345   1.04672   1.05297   1.05849
 Alpha virt. eigenvalues --    1.05870   1.06980   1.07415   1.07971   1.08414
 Alpha virt. eigenvalues --    1.08925   1.09710   1.10240   1.11749   1.12044
 Alpha virt. eigenvalues --    1.12236   1.12543   1.12807   1.13756   1.14374
 Alpha virt. eigenvalues --    1.14733   1.16287   1.17289   1.17490   1.18247
 Alpha virt. eigenvalues --    1.18688   1.19628   1.20420   1.21556   1.21912
 Alpha virt. eigenvalues --    1.23129   1.23752   1.24569   1.25422   1.27742
 Alpha virt. eigenvalues --    1.28639   1.29233   1.30029   1.30422   1.31783
 Alpha virt. eigenvalues --    1.32465   1.33527   1.33709   1.35387   1.36979
 Alpha virt. eigenvalues --    1.37189   1.37518   1.39033   1.39397   1.40148
 Alpha virt. eigenvalues --    1.41135   1.41874   1.42716   1.42791   1.43165
 Alpha virt. eigenvalues --    1.44024   1.44977   1.45216   1.45609   1.46763
 Alpha virt. eigenvalues --    1.47275   1.48303   1.48517   1.49149   1.49732
 Alpha virt. eigenvalues --    1.51169   1.51889   1.51976   1.52600   1.52766
 Alpha virt. eigenvalues --    1.53744   1.54968   1.55713   1.56316   1.56666
 Alpha virt. eigenvalues --    1.57204   1.57627   1.58684   1.59064   1.59183
 Alpha virt. eigenvalues --    1.59267   1.59949   1.60561   1.60995   1.61799
 Alpha virt. eigenvalues --    1.62197   1.63295   1.64902   1.65184   1.66044
 Alpha virt. eigenvalues --    1.66690   1.67407   1.67767   1.68759   1.69725
 Alpha virt. eigenvalues --    1.70573   1.71317   1.71599   1.71990   1.72714
 Alpha virt. eigenvalues --    1.74067   1.74720   1.75309   1.75522   1.75802
 Alpha virt. eigenvalues --    1.76669   1.77999   1.78119   1.79145   1.79865
 Alpha virt. eigenvalues --    1.80929   1.81652   1.82030   1.82669   1.83102
 Alpha virt. eigenvalues --    1.83381   1.83931   1.84440   1.84587   1.85514
 Alpha virt. eigenvalues --    1.86874   1.87878   1.89085   1.89551   1.90831
 Alpha virt. eigenvalues --    1.91581   1.92201   1.92861   1.93244   1.94140
 Alpha virt. eigenvalues --    1.95020   1.95501   1.96062   1.96543   1.97163
 Alpha virt. eigenvalues --    1.97361   1.98215   2.00960   2.01328   2.01805
 Alpha virt. eigenvalues --    2.02321   2.02844   2.02995   2.04958   2.05545
 Alpha virt. eigenvalues --    2.05592   2.06888   2.07173   2.07927   2.08636
 Alpha virt. eigenvalues --    2.08968   2.09559   2.10293   2.11807   2.12679
 Alpha virt. eigenvalues --    2.14067   2.14256   2.15012   2.15619   2.16373
 Alpha virt. eigenvalues --    2.17257   2.17481   2.18394   2.18836   2.19061
 Alpha virt. eigenvalues --    2.19517   2.20463   2.21761   2.22862   2.23804
 Alpha virt. eigenvalues --    2.24617   2.25630   2.26607   2.27116   2.28716
 Alpha virt. eigenvalues --    2.29592   2.32220   2.34899   2.36879   2.37761
 Alpha virt. eigenvalues --    2.38628   2.41179   2.42144   2.43401   2.44387
 Alpha virt. eigenvalues --    2.46348   2.46782   2.47260   2.48403   2.50363
 Alpha virt. eigenvalues --    2.53711   2.55538   2.57941   2.58766   2.60386
 Alpha virt. eigenvalues --    2.61229   2.61888   2.63545   2.65735   2.66979
 Alpha virt. eigenvalues --    2.69921   2.70279   2.73400   2.74332   2.76213
 Alpha virt. eigenvalues --    2.77530   2.79188   2.81960   2.83642   2.84441
 Alpha virt. eigenvalues --    2.86177   2.86695   2.91077   2.94124   2.95433
 Alpha virt. eigenvalues --    2.97223   2.99432   3.07810   3.10089   3.12887
 Alpha virt. eigenvalues --    3.14815   3.18287   3.30378   3.34334   3.36140
 Alpha virt. eigenvalues --    3.42871   3.46189   3.48482   3.50222   3.50495
 Alpha virt. eigenvalues --    3.55926   3.58502   3.59365   3.61312   3.65413
 Alpha virt. eigenvalues --    3.71889   3.79414   3.79851   3.85725   3.87828
 Alpha virt. eigenvalues --    3.88134   4.62961   4.64296
          Condensed to atoms (all electrons):
               1          2          3          4          5          6
     1  C   12.809531  -5.967462   5.266531  -6.117391   5.535711  -5.559695
     2  C   -5.967462  17.571824  -8.510257   4.976128  -6.968266   5.712172
     3  C    5.266531  -8.510257  23.177130  -9.714134   3.781509  -6.269389
     4  C   -6.117391   4.976128  -9.714134  21.578279 -11.591056   5.178666
     5  C    5.535711  -6.968266   3.781509 -11.591056  25.458649  -7.480400
     6  C   -5.559695   5.712172  -6.269389   5.178666  -7.480400  15.001085
     7  H   -1.293000   0.631097  -0.182364   0.168962  -0.239377   0.604212
     8  H    0.579602  -0.360826   0.217575  -0.373390   1.008675  -1.455604
     9  H   -0.217670   0.758038  -2.461181   0.488429  -0.470523   0.174770
    10  H    0.659954  -1.787684   1.241752  -0.388015   0.267785  -0.386175
    11  H   -0.242793   0.188331  -0.257597   1.099095  -2.390340   0.817888
    12  C    0.127890  -0.249521  -1.240070  -2.181806  -0.789027  -0.784981
    13  C   -0.174702   0.216846  -0.420286   0.594638  -0.454601   0.246414
    14  O    0.017603  -0.065064   0.208370   0.253128  -0.024806  -0.047434
    15  H   -0.008169  -0.048176  -0.201578   0.356526   0.014467   0.144812
    16  S    0.016693   0.062118   0.105655  -0.031719  -0.019300  -0.045402
    17  H    0.000097  -0.000771  -0.004267   0.000632  -0.000235  -0.000107
    18  P   -0.026627  -0.163382  -0.347506   0.809009  -0.373592   0.023290
    19  C    0.001945  -0.004392  -0.010770  -0.018551  -0.015953  -0.002341
    20  S    0.002903  -0.078152   0.049203  -0.066435   0.044717  -0.009615
    21  C    0.023526   0.043987   0.255315  -0.620717   0.124576  -0.039144
    22  H    0.000035  -0.000107   0.000284  -0.000122   0.000307  -0.000044
    23  C    0.000303  -0.007799  -0.004387  -0.042726   0.017217  -0.000132
    24  H   -0.000001   0.000003  -0.000004   0.000045  -0.000009   0.000001
    25  C   -0.006402   0.040910   0.033927   0.378599  -0.121464  -0.006589
    26  C   -0.000417   0.004779   0.012158   0.025689  -0.012577   0.000194
    27  H    0.003432   0.002183   0.031950  -0.007152   0.006752  -0.014494
    28  C   -0.000011  -0.007310  -0.017186   0.081873   0.017677   0.003370
    29  C    0.000000   0.000001   0.000177  -0.000118   0.000009  -0.000001
    30  O    0.000001  -0.000007  -0.000116   0.000323   0.000022  -0.000001
    31  H   -0.000001   0.000002  -0.000001   0.000006  -0.000006   0.000002
    32  H    0.000000  -0.000001   0.000010  -0.000029   0.000007  -0.000000
    33  H    0.000005  -0.000241  -0.000730  -0.002370   0.001207   0.000197
    34  H   -0.007426   0.004571  -0.019499   0.086827  -0.047188   0.013314
    35  H    0.007796   0.005114   0.113631  -0.257828   0.061504  -0.012462
               7          8          9         10         11         12
     1  C   -1.293000   0.579602  -0.217670   0.659954  -0.242793   0.127890
     2  C    0.631097  -0.360826   0.758038  -1.787684   0.188331  -0.249521
     3  C   -0.182364   0.217575  -2.461181   1.241752  -0.257597  -1.240070
     4  C    0.168962  -0.373390   0.488429  -0.388015   1.099095  -2.181806
     5  C   -0.239377   1.008675  -0.470523   0.267785  -2.390340  -0.789027
     6  C    0.604212  -1.455604   0.174770  -0.386175   0.817888  -0.784981
     7  H    2.187142  -0.107195  -0.029581  -0.108741  -0.024901  -0.012261
     8  H   -0.107195   2.256192   0.020755  -0.031296  -0.158847   0.034043
     9  H   -0.029581   0.020755   3.987880  -0.258785  -0.035087   0.147344
    10  H   -0.108741  -0.031296  -0.258785   2.376603   0.016310   0.050019
    11  H   -0.024901  -0.158847  -0.035087   0.016310   3.041249  -0.079864
    12  C   -0.012261   0.034043   0.147344   0.050019  -0.079864  14.206732
    13  C    0.000751  -0.004649  -0.002076   0.007783   0.035494  -0.669526
    14  O    0.000587  -0.000353  -0.113504   0.000633   0.007630  -1.005115
    15  H   -0.001050   0.003148   0.037823  -0.000177  -0.091363  -1.286554
    16  S   -0.000071  -0.000300  -0.016282   0.000656   0.005396  -0.359592
    17  H    0.000006  -0.000004   0.004328  -0.000030   0.000007   0.014980
    18  P    0.000680   0.000089  -0.111910   0.014360   0.012379  -1.181011
    19  C   -0.000000  -0.000040  -0.007377   0.000141  -0.000400   0.127301
    20  S    0.000369  -0.000254   0.047156   0.000809  -0.000119   0.149572
    21  C    0.000807  -0.001345   0.032621  -0.003283   0.004542   0.876926
    22  H    0.000001  -0.000002  -0.000406  -0.000006   0.000034  -0.000947
    23  C    0.000037  -0.000076   0.005194  -0.000325   0.001139   0.231864
    24  H   -0.000000   0.000000   0.000003   0.000000  -0.000002  -0.000577
    25  C   -0.000221   0.000544  -0.005139   0.001201  -0.001735  -1.157315
    26  C   -0.000016   0.000069   0.001222   0.000153  -0.001049  -0.145638
    27  H    0.000149  -0.000449   0.008326  -0.000570   0.005223   0.042832
    28  C    0.000009   0.000044   0.001483  -0.000247   0.000605  -0.200892
    29  C    0.000000  -0.000000   0.000101  -0.000001   0.000004   0.000527
    30  O    0.000000  -0.000000  -0.000021  -0.000001   0.000004  -0.000088
    31  H   -0.000000   0.000000   0.000003   0.000000  -0.000003  -0.000292
    32  H    0.000000  -0.000000   0.000012  -0.000000   0.000002   0.000487
    33  H   -0.000002   0.000007   0.000143   0.000002  -0.000131   0.011434
    34  H    0.000135   0.000014  -0.016775   0.000938   0.009148   0.176517
    35  H    0.000512  -0.004116   0.055157  -0.002168  -0.032557  -0.127014
              13         14         15         16         17         18
     1  C   -0.174702   0.017603  -0.008169   0.016693   0.000097  -0.026627
     2  C    0.216846  -0.065064  -0.048176   0.062118  -0.000771  -0.163382
     3  C   -0.420286   0.208370  -0.201578   0.105655  -0.004267  -0.347506
     4  C    0.594638   0.253128   0.356526  -0.031719   0.000632   0.809009
     5  C   -0.454601  -0.024806   0.014467  -0.019300  -0.000235  -0.373592
     6  C    0.246414  -0.047434   0.144812  -0.045402  -0.000107   0.023290
     7  H    0.000751   0.000587  -0.001050  -0.000071   0.000006   0.000680
     8  H   -0.004649  -0.000353   0.003148  -0.000300  -0.000004   0.000089
     9  H   -0.002076  -0.113504   0.037823  -0.016282   0.004328  -0.111910
    10  H    0.007783   0.000633  -0.000177   0.000656  -0.000030   0.014360
    11  H    0.035494   0.007630  -0.091363   0.005396   0.000007   0.012379
    12  C   -0.669526  -1.005115  -1.286554  -0.359592   0.014980  -1.181011
    13  C    5.242066   0.027851   0.231899   0.344258   0.006003   0.180619
    14  O    0.027851   9.906520  -0.130534  -0.064814  -0.003916  -0.205423
    15  H    0.231899  -0.130534   2.552732   0.047099  -0.002704   0.116170
    16  S    0.344258  -0.064814   0.047099  16.218137   0.007720   0.077120
    17  H    0.006003  -0.003916  -0.002704   0.007720   3.540362  -0.441517
    18  P    0.180619  -0.205423   0.116170   0.077120  -0.441517  19.060529
    19  C   -0.156300  -0.066626  -0.012349  -0.174480  -3.480944  -0.837609
    20  S   -0.000996  -0.127068   0.000989  -0.056045  -0.020879   0.134916
    21  C   -0.162252  -0.322451  -0.151818   0.153347   1.544429  -0.975215
    22  H    0.001675   0.001451   0.000115   0.001966  -0.316123   0.018418
    23  C   -0.046765  -0.017636  -0.013601   0.006233   1.519755  -0.685690
    24  H    0.000091   0.000037   0.000000  -0.000006   0.003335   0.000399
    25  C    0.258824   0.621894   0.049972   0.009215   0.095390  -0.845878
    26  C    0.029369   0.021166   0.009299  -0.005161  -0.604395   0.016269
    27  H   -0.017520  -0.188908  -0.046770   0.003455  -0.022376  -0.149450
    28  C    0.075098  -0.026288   0.062942   0.053004   0.043742   0.335842
    29  C    0.000089   0.000008  -0.000151  -0.000345   0.024379  -0.015056
    30  O    0.000258   0.000782   0.000201   0.000322   0.008991   0.000616
    31  H    0.000170  -0.000032   0.000005  -0.000007   0.003324  -0.001613
    32  H   -0.000140  -0.000032  -0.000021  -0.000054  -0.000254  -0.000599
    33  H   -0.000009  -0.001374   0.002430   0.001862   0.013493   0.007135
    34  H    0.121006   0.114264  -0.178857  -0.239011   0.000796   0.086951
    35  H    0.105958  -0.004200   0.077895  -0.044448  -0.000005  -0.094219
              19         20         21         22         23         24
     1  C    0.001945   0.002903   0.023526   0.000035   0.000303  -0.000001
     2  C   -0.004392  -0.078152   0.043987  -0.000107  -0.007799   0.000003
     3  C   -0.010770   0.049203   0.255315   0.000284  -0.004387  -0.000004
     4  C   -0.018551  -0.066435  -0.620717  -0.000122  -0.042726   0.000045
     5  C   -0.015953   0.044717   0.124576   0.000307   0.017217  -0.000009
     6  C   -0.002341  -0.009615  -0.039144  -0.000044  -0.000132   0.000001
     7  H   -0.000000   0.000369   0.000807   0.000001   0.000037  -0.000000
     8  H   -0.000040  -0.000254  -0.001345  -0.000002  -0.000076   0.000000
     9  H   -0.007377   0.047156   0.032621  -0.000406   0.005194   0.000003
    10  H    0.000141   0.000809  -0.003283  -0.000006  -0.000325   0.000000
    11  H   -0.000400  -0.000119   0.004542   0.000034   0.001139  -0.000002
    12  C    0.127301   0.149572   0.876926  -0.000947   0.231864  -0.000577
    13  C   -0.156300  -0.000996  -0.162252   0.001675  -0.046765   0.000091
    14  O   -0.066626  -0.127068  -0.322451   0.001451  -0.017636   0.000037
    15  H   -0.012349   0.000989  -0.151818   0.000115  -0.013601   0.000000
    16  S   -0.174480  -0.056045   0.153347   0.001966   0.006233  -0.000006
    17  H   -3.480944  -0.020879   1.544429  -0.316123   1.519755   0.003335
    18  P   -0.837609   0.134916  -0.975215   0.018418  -0.685690   0.000399
    19  C   29.584434   0.193713  -9.498770   0.906542  -9.633983   0.135431
    20  S    0.193713  16.344330  -0.007897   0.002947   0.042788  -0.000302
    21  C   -9.498770  -0.007897  24.453762  -0.229615   3.502929   0.007563
    22  H    0.906542   0.002947  -0.229615   3.777923  -2.646172  -0.062393
    23  C   -9.633983   0.042788   3.502929  -2.646172  22.061911   0.198251
    24  H    0.135431  -0.000302   0.007563  -0.062393   0.198251   1.303972
    25  C    2.973700  -0.046992 -12.455405  -0.091017  -8.301149  -0.041742
    26  C    4.613349   0.002319  -8.589983   0.882848  -6.951403  -0.265972
    27  H    0.021964   0.013696   1.994412   0.017547   0.448331  -0.001682
    28  C   -9.344885  -0.009970   6.908915   0.067784   4.387322  -0.081764
    29  C    0.154694   0.000042  -0.183706  -0.064779   0.125576   0.314901
    30  O   -0.160734  -0.000224   0.353407  -0.147789   1.041289   0.118868
    31  H    0.147194  -0.000025   0.013321  -0.056099   0.224353  -0.086681
    32  H   -0.139479   0.000047  -0.022824   0.031893  -0.516351  -0.451528
    33  H    0.345434   0.000532  -1.072400  -0.044868  -0.048108   0.010662
    34  H    0.060165  -0.003108  -0.004436   0.000683  -0.004220  -0.000102
    35  H   -0.024114   0.002360   0.050394   0.000147  -0.001596   0.000015
              25         26         27         28         29         30
     1  C   -0.006402  -0.000417   0.003432  -0.000011   0.000000   0.000001
     2  C    0.040910   0.004779   0.002183  -0.007310   0.000001  -0.000007
     3  C    0.033927   0.012158   0.031950  -0.017186   0.000177  -0.000116
     4  C    0.378599   0.025689  -0.007152   0.081873  -0.000118   0.000323
     5  C   -0.121464  -0.012577   0.006752   0.017677   0.000009   0.000022
     6  C   -0.006589   0.000194  -0.014494   0.003370  -0.000001  -0.000001
     7  H   -0.000221  -0.000016   0.000149   0.000009   0.000000   0.000000
     8  H    0.000544   0.000069  -0.000449   0.000044  -0.000000  -0.000000
     9  H   -0.005139   0.001222   0.008326   0.001483   0.000101  -0.000021
    10  H    0.001201   0.000153  -0.000570  -0.000247  -0.000001  -0.000001
    11  H   -0.001735  -0.001049   0.005223   0.000605   0.000004   0.000004
    12  C   -1.157315  -0.145638   0.042832  -0.200892   0.000527  -0.000088
    13  C    0.258824   0.029369  -0.017520   0.075098   0.000089   0.000258
    14  O    0.621894   0.021166  -0.188908  -0.026288   0.000008   0.000782
    15  H    0.049972   0.009299  -0.046770   0.062942  -0.000151   0.000201
    16  S    0.009215  -0.005161   0.003455   0.053004  -0.000345   0.000322
    17  H    0.095390  -0.604395  -0.022376   0.043742   0.024379   0.008991
    18  P   -0.845878   0.016269  -0.149450   0.335842  -0.015056   0.000616
    19  C    2.973700   4.613349   0.021964  -9.344885   0.154694  -0.160734
    20  S   -0.046992   0.002319   0.013696  -0.009970   0.000042  -0.000224
    21  C  -12.455405  -8.589983   1.994412   6.908915  -0.183706   0.353407
    22  H   -0.091017   0.882848   0.017547   0.067784  -0.064779  -0.147789
    23  C   -8.301149  -6.951403   0.448331   4.387322   0.125576   1.041289
    24  H   -0.041742  -0.265972  -0.001682  -0.081764   0.314901   0.118868
    25  C   30.985541   7.806716  -4.292900 -12.958698   0.211870  -0.271873
    26  C    7.806716  18.776999  -1.379501 -10.115591   0.043468  -1.296735
    27  H   -4.292900  -1.379501   4.363015   1.513990  -0.004649  -0.017016
    28  C  -12.958698 -10.115591   1.513990  28.409670  -0.520145  -0.027215
    29  C    0.211870   0.043468  -0.004649  -0.520145   4.180846   0.138384
    30  O   -0.271873  -1.296735  -0.017016  -0.027215   0.138384   9.371469
    31  H   -0.028142  -0.300516  -0.001505  -0.120144   0.325559   0.118154
    32  H    0.110240   0.588696   0.001031   0.165415   0.278975  -0.415185
    33  H    1.083597   2.240030  -0.261726  -3.247081   0.042999  -0.102837
    34  H    0.013921  -0.020220  -0.038654  -0.051656  -0.000494   0.000504
    35  H    0.007189   0.004829   0.004168   0.018974   0.000030  -0.000019
              31         32         33         34         35
     1  C   -0.000001   0.000000   0.000005  -0.007426   0.007796
     2  C    0.000002  -0.000001  -0.000241   0.004571   0.005114
     3  C   -0.000001   0.000010  -0.000730  -0.019499   0.113631
     4  C    0.000006  -0.000029  -0.002370   0.086827  -0.257828
     5  C   -0.000006   0.000007   0.001207  -0.047188   0.061504
     6  C    0.000002  -0.000000   0.000197   0.013314  -0.012462
     7  H   -0.000000   0.000000  -0.000002   0.000135   0.000512
     8  H    0.000000  -0.000000   0.000007   0.000014  -0.004116
     9  H    0.000003   0.000012   0.000143  -0.016775   0.055157
    10  H    0.000000  -0.000000   0.000002   0.000938  -0.002168
    11  H   -0.000003   0.000002  -0.000131   0.009148  -0.032557
    12  C   -0.000292   0.000487   0.011434   0.176517  -0.127014
    13  C    0.000170  -0.000140  -0.000009   0.121006   0.105958
    14  O   -0.000032  -0.000032  -0.001374   0.114264  -0.004200
    15  H    0.000005  -0.000021   0.002430  -0.178857   0.077895
    16  S   -0.000007  -0.000054   0.001862  -0.239011  -0.044448
    17  H    0.003324  -0.000254   0.013493   0.000796  -0.000005
    18  P   -0.001613  -0.000599   0.007135   0.086951  -0.094219
    19  C    0.147194  -0.139479   0.345434   0.060165  -0.024114
    20  S   -0.000025   0.000047   0.000532  -0.003108   0.002360
    21  C    0.013321  -0.022824  -1.072400  -0.004436   0.050394
    22  H   -0.056099   0.031893  -0.044868   0.000683   0.000147
    23  C    0.224353  -0.516351  -0.048108  -0.004220  -0.001596
    24  H   -0.086681  -0.451528   0.010662  -0.000102   0.000015
    25  C   -0.028142   0.110240   1.083597   0.013921   0.007189
    26  C   -0.300516   0.588696   2.240030  -0.020220   0.004829
    27  H   -0.001505   0.001031  -0.261726  -0.038654   0.004168
    28  C   -0.120144   0.165415  -3.247081  -0.051656   0.018974
    29  C    0.325559   0.278975   0.042999  -0.000494   0.000030
    30  O    0.118154  -0.415185  -0.102837   0.000504  -0.000019
    31  H    1.296970  -0.444937   0.010309  -0.000085   0.000016
    32  H   -0.444937   2.235582  -0.013191   0.000047  -0.000012
    33  H    0.010309  -0.013191   2.846742  -0.002784   0.000279
    34  H   -0.000085   0.000047  -0.002784   1.790168  -0.534270
    35  H    0.000016  -0.000012   0.000279  -0.534270   1.998120
 Mulliken charges:
               1
     1  C    0.568212
     2  C    0.001310
     3  C    1.166144
     4  C    1.336701
     5  C    0.657928
     6  C    0.193623
     7  H   -0.596678
     8  H   -0.622013
     9  H   -1.024469
    10  H   -0.671596
    11  H   -0.927689
    12  C    1.273624
    13  C    0.382662
    14  O   -0.766346
    15  H   -0.534653
    16  S   -0.057216
    17  H   -0.933240
    18  P    0.561505
    19  C    0.324089
    20  S   -0.605326
    21  C   -0.003513
    22  H   -1.052110
    23  C    1.107626
    24  H   -0.100812
    25  C    1.949410
    26  C    0.609554
    27  H   -1.037132
    28  C    0.581327
    29  C    0.946804
    30  O   -0.713733
    31  H   -0.099301
    32  H   -0.407802
    33  H   -0.820647
    34  H   -0.311184
    35  H   -0.375060
 Sum of Mulliken charges =  -0.00000
 Mulliken charges with hydrogens summed into heavy atoms:
               1
     1  C   -0.028466
     2  C   -0.670286
     3  C    0.141675
     4  C    1.336701
     5  C   -0.269761
     6  C   -0.428390
    12  C    0.738971
    13  C   -0.303582
    14  O   -0.766346
    16  S   -0.057216
    18  P    0.561505
    19  C   -0.609151
    20  S   -0.605326
    21  C   -0.003513
    23  C    0.055517
    25  C    0.912278
    26  C    0.609554
    28  C   -0.239320
    29  C    0.338890
    30  O   -0.713733
 Electronic spatial extent (au):  <R**2>=           9047.8760
 Charge=             -0.0000 electrons
 Dipole moment (field-independent basis, Debye):
    X=              2.7613    Y=             -5.7856    Z=              1.7401  Tot=              6.6427
 Quadrupole moment (field-independent basis, Debye-Ang):
   XX=            -97.0061   YY=           -137.9467   ZZ=           -146.6919
   XY=             11.6418   XZ=              1.3849   YZ=              0.0129
 Traceless Quadrupole moment (field-independent basis, Debye-Ang):
   XX=             30.2088   YY=            -10.7318   ZZ=            -19.4770
   XY=             11.6418   XZ=              1.3849   YZ=              0.0129
 Octapole moment (field-independent basis, Debye-Ang**2):
  XXX=            172.4206  YYY=            -55.9932  ZZZ=              8.0721  XYY=            -12.7042
  XXY=             14.6639  XXZ=              7.9115  XZZ=             16.5820  YZZ=            -10.1487
  YYZ=              3.9591  XYZ=             14.4978
 Hexadecapole moment (field-independent basis, Debye-Ang**3):
 XXXX=          -7690.0045 YYYY=          -1559.7944 ZZZZ=           -695.5543 XXXY=            161.2418
 XXXZ=            112.0692 YYYX=             28.6717 YYYZ=             14.6676 ZZZX=            -38.0335
 ZZZY=             -7.3817 XXYY=          -1854.4007 XXZZ=          -1915.3873 YYZZ=           -377.5834
 XXYZ=            -28.9273 YYXZ=              0.4067 ZZXY=             -7.1944
 N-N= 1.918004669235D+03 E-N=-8.240585556496D+03  KE= 1.861157111257D+03
 Unable to Open any file for archive entry.
 1\1\GINC-R148\SP\RwB97XD\Aug-CC-pVDZ\C15H15O2P1S2\ZLAB\22-May-2025\0\\
 #n nmr=giao wb97xd/aug-cc-pvdz scrf=(cpcm,solvent=Chloroform) integral
 =(acc2e=14,grid=superfinegrid)\\OBn trans NMR\\0,1\C,0,5.8925,-0.1216,
 0.48588\C,0,4.92271,0.87741,0.59359\C,0,3.56446,0.56268,0.49035\C,0,3.
 16474,-0.76073,0.27532\C,0,4.14264,-1.76237,0.18149\C,0,5.49865,-1.447
 16,0.28016\H,0,6.94631,0.12776,0.56943\H,0,6.24328,-2.23469,0.20805\H,
 0,2.82236,1.34742,0.58836\H,0,5.21914,1.90869,0.76137\H,0,3.84405,-2.7
 9898,0.0366\C,0,1.71065,-1.16534,0.11551\C,0,1.24553,-1.30611,-1.3553\
 O,0,0.81048,-0.27261,0.80458\H,0,1.56935,-2.13868,0.60032\S,0,0.73178,
 0.34972,-1.96273\H,0,-2.63292,2.10498,-0.51233\P,0,-0.05148,0.85954,-0
 .03435\C,0,-2.82487,1.08173,-0.20503\S,0,0.18189,2.73045,0.45262\C,0,-
 1.75223,0.24369,0.12483\H,0,-4.9488,1.30499,-0.38652\C,0,-4.14253,0.62
 979,-0.12705\H,0,-6.83673,0.45868,0.74544\C,0,-2.02595,-1.06851,0.5535
 2\C,0,-4.40133,-0.6831,0.29421\H,0,-1.21332,-1.72307,0.84816\C,0,-3.33
 374,-1.5277,0.63913\C,0,-6.77729,-0.42001,0.09218\O,0,-5.64431,-1.2243
 ,0.41027\H,0,-6.75572,-0.09958,-0.95633\H,0,-7.64662,-1.05631,0.25951\
 H,0,-3.55447,-2.53335,0.98156\H,0,0.40487,-2.00202,-1.42851\H,0,2.0597
 1,-1.66234,-1.98968\\Version=ES64L-G16RevC.01\State=1-A\HF=-1868.71319
 81\RMSD=5.457e-09\Dipole=-1.0863753,-2.2762195,-0.6846072\Quadrupole=2
 2.4594944,-7.9788343,-14.4806602,-8.6553865,1.0296734,-0.0096091\PG=C0
 1 [X(C15H15O2P1S2)]\\@
 The archive entry for this job was punched.


 YOU CAN WIPE THE SLATE CLEAN, BUT YOU'LL STILL
 HAVE TO EAT A LITTLE CHALK DUST.
 Job cpu time:       0 days  4 hours  9 minutes 28.5 seconds.
 Elapsed time:       0 days  0 hours 15 minutes 56.6 seconds.
 File lengths (MBytes):  RWF=    282 Int=      0 D2E=      0 Chk=     30 Scr=      1
 Normal termination of Gaussian 16 at Thu May 22 12:20:35 2025.
