 Entering Gaussian System, Link 0=g16
 Initial command:
 /opt/packages/gaussian/g16RevC.01/g16/l1.exe "/ocean/projects/che200051p/zlab/tmp/Gau-103221.inp" -scrdir="/ocean/projects/che200051p/zlab/tmp/"
 Entering Link 1 = /opt/packages/gaussian/g16RevC.01/g16/l1.exe PID=    103222.
  
 Copyright (c) 1988-2019, Gaussian, Inc.  All Rights Reserved.
  
 This is part of the Gaussian(R) 16 program.  It is based on
 the Gaussian(R) 09 system (copyright 2009, Gaussian, Inc.),
 the Gaussian(R) 03 system (copyright 2003, Gaussian, Inc.),
 the Gaussian(R) 98 system (copyright 1998, Gaussian, Inc.),
 the Gaussian(R) 94 system (copyright 1995, Gaussian, Inc.),
 the Gaussian 92(TM) system (copyright 1992, Gaussian, Inc.),
 the Gaussian 90(TM) system (copyright 1990, Gaussian, Inc.),
 the Gaussian 88(TM) system (copyright 1988, Gaussian, Inc.),
 the Gaussian 86(TM) system (copyright 1986, Carnegie Mellon
 University), and the Gaussian 82(TM) system (copyright 1983,
 Carnegie Mellon University). Gaussian is a federally registered
 trademark of Gaussian, Inc.
  
 This software contains proprietary and confidential information,
 including trade secrets, belonging to Gaussian, Inc.
  
 This software is provided under written license and may be
 used, copied, transmitted, or stored only in accord with that
 written license.
  
 The following legend is applicable only to US Government
 contracts under FAR:
  
                    RESTRICTED RIGHTS LEGEND
  
 Use, reproduction and disclosure by the US Government is
 subject to restrictions as set forth in subparagraphs (a)
 and (c) of the Commercial Computer Software - Restricted
 Rights clause in FAR 52.227-19.
  
 Gaussian, Inc.
 340 Quinnipiac St., Bldg. 40, Wallingford CT 06492
  
  
 ---------------------------------------------------------------
 Warning -- This program may not be used in any manner that
 competes with the business of Gaussian, Inc. or will provide
 assistance to any competitor of Gaussian, Inc.  The licensee
 of this program is prohibited from giving any competitor of
 Gaussian, Inc. access to this program.  By using this program,
 the user acknowledges that Gaussian, Inc. is engaged in the
 business of creating and licensing software in the field of
 computational chemistry and represents and warrants to the
 licensee that it is not a competitor of Gaussian, Inc. and that
 it will not use this program in any manner prohibited above.
 ---------------------------------------------------------------
  

 Cite this work as:
 Gaussian 16, Revision C.01,
 M. J. Frisch, G. W. Trucks, H. B. Schlegel, G. E. Scuseria, 
 M. A. Robb, J. R. Cheeseman, G. Scalmani, V. Barone, 
 G. A. Petersson, H. Nakatsuji, X. Li, M. Caricato, A. V. Marenich, 
 J. Bloino, B. G. Janesko, R. Gomperts, B. Mennucci, H. P. Hratchian, 
 J. V. Ortiz, A. F. Izmaylov, J. L. Sonnenberg, D. Williams-Young, 
 F. Ding, F. Lipparini, F. Egidi, J. Goings, B. Peng, A. Petrone, 
 T. Henderson, D. Ranasinghe, V. G. Zakrzewski, J. Gao, N. Rega, 
 G. Zheng, W. Liang, M. Hada, M. Ehara, K. Toyota, R. Fukuda, 
 J. Hasegawa, M. Ishida, T. Nakajima, Y. Honda, O. Kitao, H. Nakai, 
 T. Vreven, K. Throssell, J. A. Montgomery, Jr., J. E. Peralta, 
 F. Ogliaro, M. J. Bearpark, J. J. Heyd, E. N. Brothers, K. N. Kudin, 
 V. N. Staroverov, T. A. Keith, R. Kobayashi, J. Normand, 
 K. Raghavachari, A. P. Rendell, J. C. Burant, S. S. Iyengar, 
 J. Tomasi, M. Cossi, J. M. Millam, M. Klene, C. Adamo, R. Cammi, 
 J. W. Ochterski, R. L. Martin, K. Morokuma, O. Farkas, 
 J. B. Foresman, and D. J. Fox, Gaussian, Inc., Wallingford CT, 2019.
 
 ******************************************
 Gaussian 16:  ES64L-G16RevC.01  3-Jul-2019
                23-May-2025 
 ******************************************
 %NProcShared=16
 Will use up to   16 processors via shared memory.
 %Chk=OBn_cis_NMR.chk
 ----------------------------------------------------------------------
 #n #n nmr=giao wb97xd/aug-cc-pvdz scrf=(cpcm,solvent=Chloroform) integ
 ral=(acc2e=14,grid=superfinegrid)
 ----------------------------------------------------------------------
 1/38=1,172=1/1;
 2/12=2,17=6,18=5,40=1/2;
 3/5=16,7=10,11=2,25=1,27=14,30=1,70=2101,72=7,74=-58,75=-7/1,2,3,8;
 4//1;
 5/5=2,38=5,53=7,87=14/2;
 8/6=1,10=90,11=11,87=14/1;
 10/13=100,45=16,87=14/2;
 6/7=2,8=2,9=2,10=2,28=1,87=14/1;
 99/9=1/99;
 -----------
 OBn cis NMR
 -----------
 Symbolic Z-matrix:
 Charge =  0 Multiplicity = 1
 C                    -5.07417  -2.54695  -0.53451 
 C                    -3.70681  -2.83293  -0.48409 
 C                    -2.77842  -1.80681  -0.29536 
 C                    -3.21029  -0.48113  -0.15896 
 C                    -4.58102  -0.19848  -0.22192 
 C                    -5.5098   -1.22585  -0.40377 
 H                    -5.794    -3.34641  -0.68364 
 H                    -6.56931  -0.99234  -0.45373 
 H                    -1.71634  -2.02717  -0.27621 
 H                    -3.36076  -3.85623  -0.59803 
 H                    -4.92453   0.82985  -0.13676 
 C                    -2.23772   0.64616   0.10463 
 C                    -1.97458   0.86111   1.6067 
 O                    -0.96371   0.3442   -0.50185 
 H                    -2.62337   1.57632  -0.33153 
 S                    -0.50249   1.96338   1.77351 
 H                     2.86967   1.55285  -1.40657 
 P                     0.22859   1.44932  -0.19416 
 C                     2.85079   0.68123  -0.76011 
 S                     0.40917   2.95221  -1.42038 
 C                     1.68578   0.38239  -0.04734 
 H                     4.86981   0.12698  -1.2256 
 C                     3.98402  -0.12927  -0.65737 
 H                     6.06189  -1.89647  -1.43368 
 C                     1.67254  -0.74748   0.79354 
 C                     3.95543  -1.25566   0.17552 
 H                     0.78415  -0.98987   1.36745 
 C                     2.78979  -1.55991   0.90256 
 C                     6.21475  -1.8664   -0.34831 
 O                     4.99711  -2.11179   0.35139 
 H                     6.64858  -0.90058  -0.06322 
 H                     6.8906   -2.6696   -0.05396 
 H                     2.7905   -2.4336    1.54583 
 H                    -1.78625  -0.09466   2.10282 
 H                    -2.82523   1.35228   2.08542 
 
                          Input orientation:                          
 ---------------------------------------------------------------------
 Center     Atomic      Atomic             Coordinates (Angstroms)
 Number     Number       Type             X           Y           Z
 ---------------------------------------------------------------------
      1          6           0       -5.074170   -2.546950   -0.534510
      2          6           0       -3.706810   -2.832930   -0.484090
      3          6           0       -2.778420   -1.806810   -0.295360
      4          6           0       -3.210290   -0.481130   -0.158960
      5          6           0       -4.581020   -0.198480   -0.221920
      6          6           0       -5.509800   -1.225850   -0.403770
      7          1           0       -5.794000   -3.346410   -0.683640
      8          1           0       -6.569310   -0.992340   -0.453730
      9          1           0       -1.716340   -2.027170   -0.276210
     10          1           0       -3.360760   -3.856230   -0.598030
     11          1           0       -4.924530    0.829850   -0.136760
     12          6           0       -2.237720    0.646160    0.104630
     13          6           0       -1.974580    0.861110    1.606700
     14          8           0       -0.963710    0.344200   -0.501850
     15          1           0       -2.623370    1.576320   -0.331530
     16         16           0       -0.502490    1.963380    1.773510
     17          1           0        2.869670    1.552850   -1.406570
     18         15           0        0.228590    1.449320   -0.194160
     19          6           0        2.850790    0.681230   -0.760110
     20         16           0        0.409170    2.952210   -1.420380
     21          6           0        1.685780    0.382390   -0.047340
     22          1           0        4.869810    0.126980   -1.225600
     23          6           0        3.984020   -0.129270   -0.657370
     24          1           0        6.061890   -1.896470   -1.433680
     25          6           0        1.672540   -0.747480    0.793540
     26          6           0        3.955430   -1.255660    0.175520
     27          1           0        0.784150   -0.989870    1.367450
     28          6           0        2.789790   -1.559910    0.902560
     29          6           0        6.214750   -1.866400   -0.348310
     30          8           0        4.997110   -2.111790    0.351390
     31          1           0        6.648580   -0.900580   -0.063220
     32          1           0        6.890600   -2.669600   -0.053960
     33          1           0        2.790500   -2.433600    1.545830
     34          1           0       -1.786250   -0.094660    2.102820
     35          1           0       -2.825230    1.352280    2.085420
 ---------------------------------------------------------------------
                    Distance matrix (angstroms):
                    1          2          3          4          5
     1  C    0.000000
     2  C    1.397856   0.000000
     3  C    2.423936   1.396585   0.000000
     4  C    2.807614   2.425532   1.400908   0.000000
     5  C    2.419963   2.788064   2.416917   1.400984   0.000000
     6  C    1.397201   2.416595   2.794585   2.429462   1.396850
     7  H    1.086062   2.158667   3.408057   3.893671   3.404992
     8  H    2.158421   3.403322   3.880630   3.410460   2.153427
     9  H    3.407626   2.157414   1.084868   2.153108   3.399036
    10  H    2.157318   1.086221   2.151941   3.406864   3.874226
    11  H    3.403436   3.875492   3.403369   2.158189   1.087527
    12  C    4.318553   3.822157   2.543504   1.512004   2.512192
    13  C    5.080070   4.584534   3.373691   2.538925   3.355609
    14  O    5.025505   4.197507   2.821818   2.417822   3.668487
    15  H    4.800935   4.542973   3.386874   2.146475   2.644678
    16  S    6.824243   6.194273   4.865636   4.128226   5.028895
    17  H    8.981840   7.958400   6.665060   6.531425   7.744891
    18  P    6.648705   5.823152   4.433366   3.943827   5.084129
    19  C    8.560200   7.444973   6.172061   6.200738   7.503022
    20  S    7.816172   7.161409   5.837351   5.145823   6.022055
    21  C    7.383447   6.293573   4.978272   4.972889   6.296084
    22  H   10.320380   9.103258   7.943571   8.172854   9.509547
    23  C    9.376091   8.154058   6.976803   7.220133   8.576381
    24  H   11.191223   9.859319   8.913747   9.465803  10.845417
    25  C    7.107736   5.909217   4.703076   4.981990   6.359212
    26  C    9.149057   7.850655   6.772756   7.215214   8.610840
    27  H    6.353099   5.195555   4.015499   4.306309   5.651322
    28  C    8.054892   6.763815   5.700959   6.188017   7.579366
    29  C   11.310948   9.969452   8.993523   9.528180  10.924586
    30  O   10.119529   8.773613   7.808339   8.383372   9.784172
    31  H   11.847173  10.542543   9.473303   9.868253  11.252646
    32  H   11.975045  10.607393   9.710439  10.335783  11.735958
    33  H    8.135951   6.818730   5.898789   6.536660   7.903164
    34  H    4.876439   4.228330   3.109200   2.700537   3.636748
    35  H    5.208240   4.989544   3.956028   2.923509   3.288080
                    6          7          8          9         10
     6  C    0.000000
     7  H    2.157747   0.000000
     8  H    1.086087   2.489098   0.000000
     9  H    3.879268   4.305079   4.965250   0.000000
    10  H    3.402206   2.487549   4.303194   2.480554   0.000000
    11  H    2.154005   4.300721   2.475106   4.298196   4.961602
    12  C    3.803866   5.404546   4.664667   2.750194   4.693236
    13  C    4.571124   6.126732   5.365836   3.457485   5.388472
    14  O    4.810573   6.081558   5.762934   2.498152   4.837221
    15  H    4.023537   5.866016   4.709925   3.716302   5.488840
    16  S    6.323361   7.888697   7.106559   4.647502   6.903750
    17  H    8.884948   9.979206   9.822436   5.926698   8.290364
    18  P    6.334792   7.714286   7.227761   3.984403   6.418365
    19  C    8.582738   9.537302   9.572512   5.331816   7.694034
    20  S    7.316002   8.871004   8.074223   5.533637   7.825822
    21  C    7.381724   8.381881   8.378636   4.175258   6.613375
    22  H   10.499612  11.228313  11.519641   6.994217   9.165265
    23  C    9.560304  10.293705  10.590521   6.020084   8.236477
    24  H   11.636772  11.967749  12.701377   7.864965   9.660502
    25  C    7.297150   8.042743   8.339288   3.777099   6.077409
    26  C    9.482987  10.008036  10.546822   5.741800   7.803075
    27  H    6.542684   7.282329   7.575624   3.167027   5.409197
    28  C    8.408406   8.910054   9.473880   4.681136   6.734547
    29  C   11.742166  12.104253  12.814339   7.933047   9.783260
    30  O   10.571202  10.910712  11.648324   6.743252   8.590603
    31  H   12.167497  12.695858  13.223976   8.443131  10.450300
    32  H   12.489063  12.718241  13.569900   8.633744  10.334142
    33  H    8.611305   8.916131   9.678921   4.878178   6.667684
    34  H    4.628975   5.865177   5.497221   3.065822   4.891123
    35  H    4.477693   6.209587   5.095357   4.269381   5.883560
                   11         12         13         14         15
    11  H    0.000000
    12  C    2.703879   0.000000
    13  C    3.426782   1.540020   0.000000
    14  O    4.007149   1.442948   2.394794   0.000000
    15  H    2.427033   1.097342   2.165454   2.074030   0.000000
    16  S    4.948582   2.744313   1.846584   2.830500   3.013161
    17  H    7.929987   5.402892   5.746743   4.119970   5.597298
    18  P    5.190538   2.610944   2.905692   1.654552   2.858089
    19  C    7.801683   5.161583   5.377578   3.838059   5.563389
    20  S    5.882215   3.827473   4.383854   3.087104   3.503565
    21  C    6.626041   3.935292   4.045152   2.688463   4.480514
    22  H    9.879711   7.249555   7.443557   5.882258   7.684250
    23  C    8.975144   6.316010   6.450719   4.972765   6.831750
    24  H   11.393693   8.815605   9.024024   7.432897   9.418532
    25  C    6.846514   4.207964   4.068203   3.133626   5.012053
    26  C    9.126914   6.478970   6.457090   5.216926   7.180377
    27  H    6.177625   3.661012   3.330759   2.886008   4.591629
    28  C    8.142596   5.547909   5.390396   4.436977   6.376615
    29  C   11.462900   8.829630   8.850226   7.512697   9.484986
    30  O   10.360042   7.746609   7.682343   6.503175   8.493542
    31  H   11.701994   9.021469   8.958296   7.725855   9.600837
    32  H   12.322755   9.713168   9.685821   8.424594  10.422116
    33  H    8.544174   6.070006   5.793514   5.099339   6.993849
    34  H    3.964750   2.178395   1.093206   2.766492   3.069040
    35  H    3.101303   2.183415   1.092715   3.342970   2.435691
                   16         17         18         19         20
    16  S    0.000000
    17  H    4.653268   0.000000
    18  P    2.161125   2.907913   0.000000
    19  C    4.394044   1.085352   2.790375   0.000000
    20  S    3.465522   2.830629   1.948051   3.399237   0.000000
    21  C    3.256309   2.149204   1.811987   1.398068   3.181029
    22  H    6.420953   2.463009   4.934914   2.144835   5.283670
    23  C    5.515173   2.152349   4.099971   1.397024   4.780926
    24  H    8.262905   4.699874   6.837990   4.172457   7.447356
    25  C    3.611074   3.400753   2.808287   2.417295   4.492800
    26  C    5.726154   3.401413   4.619839   2.418093   5.729662
    27  H    3.246847   4.302326   2.949054   3.404422   4.842789
    28  C    4.900126   3.876563   4.100976   2.791219   5.605589
    29  C    8.018145   4.899056   6.844843   4.239838   7.620571
    30  O    6.991068   4.587593   5.976446   3.693654   7.059211
    31  H    7.919195   4.701496   6.837795   4.172648   7.457621
    32  H    8.914142   5.985526   7.833743   5.295921   8.687968
    33  H    5.498096   4.961322   4.966691   3.875972   6.593640
    34  H    2.447859   6.058688   3.423386   5.504590   5.149391
    35  H    2.421952   6.683271   3.812049   6.384712   5.031079
                   21         22         23         24         25
    21  C    0.000000
    22  H    3.404641   0.000000
    23  C    2.432250   1.083131   0.000000
    24  H    5.124986   2.357690   2.836053   0.000000
    25  C    1.408496   3.881255   2.798261   5.054412   0.000000
    26  C    2.807879   2.170466   1.401170   2.727148   2.419046
    27  H    2.167410   4.966274   3.883258   6.043409   1.085063
    28  C    2.427690   3.420694   2.430288   4.034591   1.385704
    29  C    5.065492   2.559700   2.844169   1.096494   4.815337
    30  O    4.164712   2.741385   2.444245   2.089640   3.620719
    31  H    5.125978   2.360303   2.836867   1.792809   5.051579
    32  H    6.033642   3.643788   3.907120   1.785530   5.625029
    33  H    3.418830   4.308239   3.404191   4.457351   2.158420
    34  H    4.111661   7.445176   6.396551   8.794695   3.755478
    35  H    5.083165   8.466277   7.488910  10.095511   5.129121
                   26         27         28         29         30
    26  C    0.000000
    27  H    3.398288   0.000000
    28  C    1.407079   2.136272   0.000000
    29  C    2.398318   5.762252   3.659093   0.000000
    30  O    1.359774   4.476619   2.341073   1.425638   0.000000
    31  H    2.726928   6.037079   4.032085   1.096491   2.089566
    32  H    3.266054   6.490811   4.354651   1.090204   2.015134
    33  H    2.149966   2.478228   1.084957   3.954108   2.529699
    34  H    6.166790   2.819419   4.952547   8.553543   7.290425
    35  H    7.511752   4.362198   6.434940   9.899706   8.729012
                   31         32         33         34         35
    31  H    0.000000
    32  H    1.785523   0.000000
    33  H    4.452412   4.407476   0.000000
    34  H    8.745719   9.304286   5.169866   0.000000
    35  H    9.972217  10.730788   6.794150   1.781409   0.000000
 Stoichiometry    C15H15O2PS2
 Framework group  C1[X(C15H15O2PS2)]
 Deg. of freedom    99
 Full point group                 C1      NOp   1
 Largest Abelian subgroup         C1      NOp   1
 Largest concise Abelian subgroup C1      NOp   1
                         Standard orientation:                         
 ---------------------------------------------------------------------
 Center     Atomic      Atomic             Coordinates (Angstroms)
 Number     Number       Type             X           Y           Z
 ---------------------------------------------------------------------
      1          6           0       -5.074170   -2.546951   -0.534509
      2          6           0       -3.706810   -2.832931   -0.484089
      3          6           0       -2.778420   -1.806811   -0.295359
      4          6           0       -3.210290   -0.481131   -0.158959
      5          6           0       -4.581020   -0.198481   -0.221919
      6          6           0       -5.509800   -1.225851   -0.403769
      7          1           0       -5.794000   -3.346411   -0.683639
      8          1           0       -6.569310   -0.992342   -0.453729
      9          1           0       -1.716340   -2.027170   -0.276209
     10          1           0       -3.360760   -3.856231   -0.598029
     11          1           0       -4.924531    0.829849   -0.136759
     12          6           0       -2.237721    0.646160    0.104631
     13          6           0       -1.974581    0.861110    1.606701
     14          8           0       -0.963711    0.344200   -0.501849
     15          1           0       -2.623371    1.576319   -0.331529
     16         16           0       -0.502491    1.963380    1.773511
     17          1           0        2.869669    1.552851   -1.406569
     18         15           0        0.228589    1.449320   -0.194159
     19          6           0        2.850789    0.681231   -0.760109
     20         16           0        0.409169    2.952210   -1.420379
     21          6           0        1.685779    0.382390   -0.047339
     22          1           0        4.869809    0.126981   -1.225599
     23          6           0        3.984020   -0.129269   -0.657369
     24          1           0        6.061890   -1.896468   -1.433679
     25          6           0        1.672540   -0.747480    0.793541
     26          6           0        3.955430   -1.255659    0.175521
     27          1           0        0.784150   -0.989870    1.367451
     28          6           0        2.789790   -1.559909    0.902561
     29          6           0        6.214750   -1.866398   -0.348309
     30          8           0        4.997110   -2.111789    0.351391
     31          1           0        6.648580   -0.900578   -0.063219
     32          1           0        6.890600   -2.669598   -0.053959
     33          1           0        2.790500   -2.433599    1.545831
     34          1           0       -1.786250   -0.094660    2.102821
     35          1           0       -2.825231    1.352279    2.085421
 ---------------------------------------------------------------------
 Rotational constants (GHZ):           0.4161850           0.1439036           0.1204178
 Standard basis: Aug-CC-pVDZ (5D, 7F)
 There are   647 symmetry adapted cartesian basis functions of A   symmetry.
 There are   607 symmetry adapted basis functions of A   symmetry.
   607 basis functions,  1139 primitive gaussians,   647 cartesian basis functions
    84 alpha electrons       84 beta electrons
       nuclear repulsion energy      1898.1009330563 Hartrees.
 NAtoms=   35 NActive=   35 NUniq=   35 SFac= 1.00D+00 NAtFMM=   60 NAOKFM=F Big=F
 Integral buffers will be    131072 words long.
 Raffenetti 2 integral format.
 Two-electron integral symmetry is turned on.
 Nuclear repulsion after empirical dispersion term =     1898.0767436851 Hartrees.
 Force PCM accuracy= 1.00D-14.
 ------------------------------------------------------------------------------
 Polarizable Continuum Model (PCM)
 =================================
 Model                : C-PCM.
 Atomic radii         : UFF (Universal Force Field).
 Polarization charges : Total charges.
 Charge compensation  : None.
 Solution method      : On-the-fly selection.
 Cavity type          : Scaled VdW (van der Waals Surface) (Alpha=1.100).
 Cavity algorithm     : GePol (No added spheres)
                        Default sphere list used, NSphG=   35.
                        Lebedev-Laikov grids with approx.  5.0 points / Ang**2.
                        Smoothing algorithm: York/Karplus (Gamma=1.0000).
                        Polarization charges: spherical gaussians, with
                                              point-specific exponents (IZeta= 3).
                        Self-potential: point-specific (ISelfS= 7).
                        Self-field    : sphere-specific E.n sum rule (ISelfD= 2).
 Solvent              : Chloroform, Eps=   4.711300 Eps(inf)=   2.090627
 ------------------------------------------------------------------------------
 One-electron integrals computed using PRISM.
 NBasis=   607 RedAO= T EigKep=  1.15D-06  NBF=   607
 NBsUse=   607 1.00D-06 EigRej= -1.00D+00 NBFU=   607
 ExpMin= 2.97D-02 ExpMax= 1.11D+05 ExpMxC= 3.24D+03 IAcc=3 IRadAn=         7 AccDes= 0.00D+00
 Harris functional with IExCor= 4639 and IRadAn=       7 diagonalized for initial guess.
 HarFok:  IExCor= 4639 AccDes= 0.00D+00 IRadAn=         7 IDoV= 1 UseB2=F ITyADJ=14
 ICtDFT=  3500011 ScaDFX=  1.000000  1.000000  1.000000  1.000000
 FoFCou: FMM=F IPFlag=           0 FMFlag=      100000 FMFlg1=           0
         NFxFlg=           0 DoJE=T BraDBF=F KetDBF=T FulRan=T
         wScrn=  0.000000 ICntrl=       500 IOpCl=  0 I1Cent=   200000004 NGrid=           0
         NMat0=    1 NMatS0=      1 NMatT0=    0 NMatD0=    1 NMtDS0=    0 NMtDT0=    0
 Petite list used in FoFCou.
 Requested convergence on RMS density matrix=1.00D-08 within 128 cycles.
 Requested convergence on MAX density matrix=1.00D-06.
 Requested convergence on             energy=1.00D-06.
 No special actions if energy rises.
 Inv3:  Mode=1 IEnd=    25143075.
 Iteration    1 A*A^-1 deviation from unit magnitude is 3.33D-15 for   1288.
 Iteration    1 A*A^-1 deviation from orthogonality  is 2.45D-15 for   1210     37.
 Iteration    1 A^-1*A deviation from unit magnitude is 3.11D-15 for   1288.
 Iteration    1 A^-1*A deviation from orthogonality  is 1.98D-15 for   1324    741.
 Error on total polarization charges =  0.01881
 SCF Done:  E(RwB97XD) =  -1868.71501691     A.U. after   16 cycles
            NFock= 16  Conv=0.52D-08     -V/T= 2.0041
 DoSCS=F DFT=T ScalE2(SS,OS)=  1.000000  1.000000
 Range of M.O.s used for correlation:     1   607
 NBasis=   607 NAE=    84 NBE=    84 NFC=     0 NFV=     0
 NROrb=    607 NOA=    84 NOB=    84 NVA=   523 NVB=   523

 **** Warning!!: The largest alpha MO coefficient is  0.10143548D+03

 NEqPCM:  Using equilibrium solvation (IEInf=0, Eps=   4.7113, EpsInf=   2.0906)
          Differentiating once with respect to magnetic field using GIAOs.
          Electric field/nuclear overlap derivatives assumed to be zero.
 FoFJK:  IHMeth= 1 ICntrl=    6127 DoSepK=T KAlg= 0 I1Cent=           0 FoldK=F
 IRaf=         1 NMat=       1 IRICut=       1 DoRegI=T DoRafI=F ISym2E= 0 IDoP0=0 IntGTp=1.
          There are     3 degrees of freedom in the 1st order CPHF.  IDoFFX=0 NUNeed=     3.
      3 vectors produced by pass  0 Test12= 1.46D-12 3.33D-08 XBig12= 6.52D+02 3.19D+00.
 AX will form     3 AO Fock derivatives at one time.
      3 vectors produced by pass  1 Test12= 1.46D-12 3.33D-08 XBig12= 5.39D+00 4.33D-01.
      3 vectors produced by pass  2 Test12= 1.46D-12 3.33D-08 XBig12= 1.15D-01 8.71D-02.
      3 vectors produced by pass  3 Test12= 1.46D-12 3.33D-08 XBig12= 2.47D-03 8.42D-03.
      3 vectors produced by pass  4 Test12= 1.46D-12 3.33D-08 XBig12= 2.89D-05 7.43D-04.
      3 vectors produced by pass  5 Test12= 1.46D-12 3.33D-08 XBig12= 2.79D-07 7.30D-05.
      3 vectors produced by pass  6 Test12= 1.46D-12 3.33D-08 XBig12= 3.55D-09 1.17D-05.
      3 vectors produced by pass  7 Test12= 1.46D-12 3.33D-08 XBig12= 5.54D-11 1.95D-06.
      3 vectors produced by pass  8 Test12= 1.46D-12 3.33D-08 XBig12= 9.40D-13 2.26D-07.
      1 vectors produced by pass  9 Test12= 1.46D-12 3.33D-08 XBig12= 1.57D-14 3.40D-08.
 InvSVY:  IOpt=1 It=  1 EMax= 3.55D-15
 Solved reduced A of dimension    28 with     3 vectors.
 Calculating GIAO nuclear magnetic shielding tensors.
 SCF GIAO Magnetic shielding tensor (ppm):
      1  C    Isotropic =    66.6034   Anisotropy =   180.4645
   XX=    12.3352   YX=   -43.0751   ZX=   -17.0298
   XY=   -42.8110   YY=     4.4983   ZY=   -25.5683
   XZ=   -14.1555   YZ=   -23.9173   ZZ=   182.9768
   Eigenvalues:   -38.4520    51.3492   186.9131
      2  C    Isotropic =    66.4973   Anisotropy =   181.0181
   XX=    43.3991   YX=    29.8895   ZX=    -5.0216
   XY=    28.7326   YY=   -27.3785   ZY=   -25.5970
   XZ=    -6.3881   YZ=   -25.9473   ZZ=   183.4714
   Eigenvalues:   -40.1879    52.5038   187.1760
      3  C    Isotropic =    70.4417   Anisotropy =   179.7832
   XX=   -25.9720   YX=    19.6342   ZX=    -9.2042
   XY=    23.3090   YY=    51.4468   ZY=   -17.9096
   XZ=   -17.4587   YZ=   -23.9682   ZZ=   185.8503
   Eigenvalues:   -31.8059    52.8338   190.2971
      4  C    Isotropic =    55.2194   Anisotropy =   173.0844
   XX=     1.7119   YX=   -31.1707   ZX=   -17.3816
   XY=   -34.0710   YY=    -2.9961   ZY=   -25.0929
   XZ=   -12.7046   YZ=   -20.1775   ZZ=   166.9425
   Eigenvalues:   -36.8814    31.9307   170.6090
      5  C    Isotropic =    68.3642   Anisotropy =   167.2323
   XX=    50.2472   YX=    32.2824   ZX=    -4.7616
   XY=    28.6769   YY=   -20.8681   ZY=   -21.0497
   XZ=   -17.4766   YZ=   -23.3783   ZZ=   175.7134
   Eigenvalues:   -33.5441    58.7843   179.8524
      6  C    Isotropic =    66.8143   Anisotropy =   179.7101
   XX=   -33.6950   YX=    19.4019   ZX=   -13.2362
   XY=    20.8131   YY=    50.2882   ZY=   -14.7704
   XZ=   -14.2300   YZ=   -14.8219   ZZ=   183.8499
   Eigenvalues:   -38.7276    52.5495   186.6211
      7  H    Isotropic =    23.7680   Anisotropy =     4.4503
   XX=    25.6606   YX=    -1.4191   ZX=     0.1413
   XY=    -1.3405   YY=    24.9601   ZY=     0.3809
   XZ=     0.4265   YZ=     0.5855   ZZ=    20.6832
   Eigenvalues:    20.5887    23.9804    26.7348
      8  H    Isotropic =    23.7337   Anisotropy =     5.1127
   XX=    24.2517   YX=     1.2391   ZX=     0.4361
   XY=     1.2443   YY=    26.4686   ZY=     0.7944
   XZ=     0.4813   YZ=     0.7335   ZZ=    20.4808
   Eigenvalues:    20.3599    23.6990    27.1422
      9  H    Isotropic =    23.5035   Anisotropy =    11.0963
   XX=    22.6827   YX=     2.9902   ZX=     0.3051
   XY=     3.5184   YY=    29.3817   ZY=     1.1554
   XZ=     0.6714   YZ=     1.8444   ZZ=    18.4460
   Eigenvalues:    18.2433    21.3661    30.9010
     10  H    Isotropic =    23.7124   Anisotropy =     6.3969
   XX=    26.7485   YX=     1.9128   ZX=     0.6310
   XY=     2.0928   YY=    24.1974   ZY=     0.5310
   XZ=     0.9019   YZ=     0.8480   ZZ=    20.1913
   Eigenvalues:    20.0440    23.1162    27.9770
     11  H    Isotropic =    23.8212   Anisotropy =     9.1162
   XX=    29.2328   YX=     1.6015   ZX=     1.3723
   XY=     1.8189   YY=    22.0854   ZY=     0.3506
   XZ=     1.9349   YZ=    -0.0554   ZZ=    20.1453
   Eigenvalues:    19.8419    21.7230    29.8986
     12  C    Isotropic =   112.5045   Anisotropy =    51.5338
   XX=   144.5713   YX=    -0.3143   ZX=   -17.4048
   XY=     1.6551   YY=    87.1873   ZY=     9.0384
   XZ=    -1.4254   YZ=    20.2769   ZZ=   105.7550
   Eigenvalues:    78.7105   111.9427   146.8604
     13  C    Isotropic =   144.2057   Anisotropy =    43.5811
   XX=   145.5147   YX=    22.6416   ZX=     7.3802
   XY=    28.0996   YY=   127.2125   ZY=    10.5690
   XZ=    -1.4161   YZ=    18.5114   ZZ=   159.8897
   Eigenvalues:   107.3379   152.0194   173.2597
     14  O    Isotropic =   180.2170   Anisotropy =   106.4012
   XX=   145.1733   YX=    55.3861   ZX=    13.3426
   XY=    19.3281   YY=   199.5822   ZY=    50.7953
   XZ=    11.8008   YZ=    31.2170   ZZ=   195.8955
   Eigenvalues:   125.1079   164.3920   251.1512
     15  H    Isotropic =    25.8625   Anisotropy =     9.4370
   XX=    31.4784   YX=    -1.8243   ZX=     1.7469
   XY=    -1.5856   YY=    24.4336   ZY=    -2.1355
   XZ=     0.6449   YZ=    -2.5144   ZZ=    21.6753
   Eigenvalues:    20.3475    25.0861    32.1538
     16  S    Isotropic =   439.9544   Anisotropy =   410.9504
   XX=   394.2367   YX=   -67.0190   ZX=  -212.7285
   XY=   -31.4298   YY=   357.8060   ZY=   -32.4127
   XZ=  -219.1952   YZ=   -51.1483   ZZ=   567.8204
   Eigenvalues:   218.6569   387.2849   713.9213
     17  H    Isotropic =    22.8757   Anisotropy =    12.1447
   XX=    29.3041   YX=    -3.7531   ZX=    -2.1074
   XY=    -3.8760   YY=    20.6104   ZY=    -0.3371
   XZ=    -1.8358   YZ=    -0.6132   ZZ=    18.7125
   Eigenvalues:    17.6472    20.0077    30.9722
     18  P    Isotropic =   263.0366   Anisotropy =   228.4559
   XX=   165.4198   YX=    24.3687   ZX=    45.4901
   XY=    45.2851   YY=   326.6360   ZY=   -99.2056
   XZ=    25.1880   YZ=  -105.5741   ZZ=   297.0539
   Eigenvalues:   132.9066   240.8626   415.3405
     19  C    Isotropic =    57.2647   Anisotropy =   193.4247
   XX=    50.1523   YX=    26.0941   ZX=    40.6416
   XY=    19.7398   YY=    28.5675   ZY=   106.6244
   XZ=    42.6205   YZ=   101.7465   ZZ=    93.0742
   Eigenvalues:   -48.6844    34.2640   186.2145
     20  S    Isotropic =   624.9186   Anisotropy =   205.4024
   XX=   549.4695   YX=    -9.8620   ZX=    45.9991
   XY=    15.2137   YY=   571.9997   ZY=    -0.4237
   XZ=    36.4317   YZ=   -21.3928   ZZ=   753.2867
   Eigenvalues:   540.7302   572.1721   761.8536
     21  C    Isotropic =    67.4335   Anisotropy =   137.2675
   XX=    23.6863   YX=    41.0524   ZX=    29.3534
   XY=    44.3931   YY=    66.3776   ZY=    49.9598
   XZ=    22.8630   YZ=    48.3496   ZZ=   112.2367
   Eigenvalues:    -2.8865    46.2419   158.9451
     22  H    Isotropic =    24.3218   Anisotropy =     7.9513
   XX=    25.4261   YX=    -3.5662   ZX=     0.2524
   XY=    -3.1133   YY=    25.8332   ZY=    -3.0400
   XZ=    -0.0484   YZ=    -2.7826   ZZ=    21.7061
   Eigenvalues:    19.7378    23.6050    29.6226
     23  C    Isotropic =    87.1161   Anisotropy =   149.8690
   XX=    41.9744   YX=     3.0505   ZX=    59.9929
   XY=    14.4507   YY=   100.7613   ZY=    56.7743
   XZ=    52.9014   YZ=    62.6310   ZZ=   118.6127
   Eigenvalues:     6.3645    67.9551   187.0288
     24  H    Isotropic =    27.7174   Anisotropy =     8.1637
   XX=    27.5783   YX=    -0.4937   ZX=    -4.4945
   XY=    -1.8830   YY=    25.1807   ZY=     0.4554
   XZ=    -3.0851   YZ=     0.3752   ZZ=    30.3934
   Eigenvalues:    24.2616    25.7308    33.1599
     25  C    Isotropic =    62.1796   Anisotropy =   182.9861
   XX=    10.3418   YX=    11.9565   ZX=    68.8546
   XY=     9.3243   YY=    79.3771   ZY=    72.4173
   XZ=    69.9801   YZ=    76.6899   ZZ=    96.8200
   Eigenvalues:   -36.5034    38.8719   184.1704
     26  C    Isotropic =    30.7179   Anisotropy =   140.6039
   XX=   -16.4819   YX=    45.7382   ZX=    27.2806
   XY=    51.7600   YY=    30.0732   ZY=    46.6510
   XZ=    23.7226   YZ=    48.8396   ZZ=    78.5624
   Eigenvalues:   -47.3794    15.0792   124.4538
     27  H    Isotropic =    23.3887   Anisotropy =    11.4218
   XX=    24.3921   YX=    -5.2888   ZX=     1.7256
   XY=    -4.5330   YY=    25.7032   ZY=    -2.8248
   XZ=     1.9131   YZ=    -2.7750   ZZ=    20.0707
   Eigenvalues:    18.8980    20.2648    31.0032
     28  C    Isotropic =    78.4591   Anisotropy =   142.4281
   XX=    79.4109   YX=    17.4826   ZX=    28.1139
   XY=    15.8067   YY=    54.9047   ZY=    80.1888
   XZ=    30.4219   YZ=    80.4150   ZZ=   101.0616
   Eigenvalues:    -5.8059    67.7719   173.4111
     29  C    Isotropic =   141.7345   Anisotropy =    71.6014
   XX=   173.7591   YX=     9.5139   ZX=   -29.4364
   XY=     7.0214   YY=   117.5535   ZY=    -0.4961
   XZ=   -27.6172   YZ=    -1.4268   ZZ=   133.8910
   Eigenvalues:   114.6983   121.0365   189.4688
     30  O    Isotropic =   232.5886   Anisotropy =    87.0622
   XX=   194.5790   YX=   -16.8584   ZX=    53.6039
   XY=   -43.1777   YY=   263.2936   ZY=    38.5803
   XZ=    72.7895   YZ=    26.5648   ZZ=   239.8932
   Eigenvalues:   135.3791   271.7567   290.6300
     31  H    Isotropic =    27.7251   Anisotropy =     8.2661
   XX=    31.7998   YX=     3.7095   ZX=    -0.4430
   XY=     2.2156   YY=    27.0591   ZY=     0.0692
   XZ=     0.1998   YZ=    -1.0890   ZZ=    24.3163
   Eigenvalues:    24.1897    25.7497    33.2358
     32  H    Isotropic =    27.3819   Anisotropy =     8.7230
   XX=    31.5744   YX=    -4.1465   ZX=    -0.6501
   XY=    -2.3760   YY=    26.3490   ZY=    -1.4614
   XZ=    -1.9403   YZ=    -0.6856   ZZ=    24.2224
   Eigenvalues:    22.9201    26.0285    33.1973
     33  H    Isotropic =    24.1251   Anisotropy =     6.8450
   XX=    27.8101   YX=    -1.7500   ZX=    -1.7979
   XY=    -2.1751   YY=    23.0150   ZY=    -1.0793
   XZ=    -1.3472   YZ=    -1.2285   ZZ=    21.5502
   Eigenvalues:    20.1824    23.5044    28.6884
     34  H    Isotropic =    28.1718   Anisotropy =     7.3375
   XX=    26.9452   YX=     3.2147   ZX=    -0.2743
   XY=     3.0998   YY=    30.0870   ZY=    -3.6143
   XZ=     1.7553   YZ=    -2.5894   ZZ=    27.4831
   Eigenvalues:    23.4864    27.9654    33.0635
     35  H    Isotropic =    27.9826   Anisotropy =     9.7250
   XX=    32.1005   YX=    -0.4439   ZX=    -3.7236
   XY=    -0.1277   YY=    24.7787   ZY=     1.6188
   XZ=    -3.9362   YZ=     4.2524   ZZ=    27.0685
   Eigenvalues:    22.3180    27.1639    34.4659
 End of Minotr F.D. properties file   721 does not exist.
 End of Minotr F.D. properties file   722 does not exist.
 End of Minotr F.D. properties file   788 does not exist.

 **********************************************************************

            Population analysis using the SCF Density.

 **********************************************************************

 Orbital symmetries:
       Occupied  (A) (A) (A) (A) (A) (A) (A) (A) (A) (A) (A) (A)
                 (A) (A) (A) (A) (A) (A) (A) (A) (A) (A) (A) (A)
                 (A) (A) (A) (A) (A) (A) (A) (A) (A) (A) (A) (A)
                 (A) (A) (A) (A) (A) (A) (A) (A) (A) (A) (A) (A)
                 (A) (A) (A) (A) (A) (A) (A) (A) (A) (A) (A) (A)
                 (A) (A) (A) (A) (A) (A) (A) (A) (A) (A) (A) (A)
                 (A) (A) (A) (A) (A) (A) (A) (A) (A) (A) (A) (A)
       Virtual   (A) (A) (A) (A) (A) (A) (A) (A) (A) (A) (A) (A)
                 (A) (A) (A) (A) (A) (A) (A) (A) (A) (A) (A) (A)
                 (A) (A) (A) (A) (A) (A) (A) (A) (A) (A) (A) (A)
                 (A) (A) (A) (A) (A) (A) (A) (A) (A) (A) (A) (A)
                 (A) (A) (A) (A) (A) (A) (A) (A) (A) (A) (A) (A)
                 (A) (A) (A) (A) (A) (A) (A) (A) (A) (A) (A) (A)
                 (A) (A) (A) (A) (A) (A) (A) (A) (A) (A) (A) (A)
                 (A) (A) (A) (A) (A) (A) (A) (A) (A) (A) (A) (A)
                 (A) (A) (A) (A) (A) (A) (A) (A) (A) (A) (A) (A)
                 (A) (A) (A) (A) (A) (A) (A) (A) (A) (A) (A) (A)
                 (A) (A) (A) (A) (A) (A) (A) (A) (A) (A) (A) (A)
                 (A) (A) (A) (A) (A) (A) (A) (A) (A) (A) (A) (A)
                 (A) (A) (A) (A) (A) (A) (A) (A) (A) (A) (A) (A)
                 (A) (A) (A) (A) (A) (A) (A) (A) (A) (A) (A) (A)
                 (A) (A) (A) (A) (A) (A) (A) (A) (A) (A) (A) (A)
                 (A) (A) (A) (A) (A) (A) (A) (A) (A) (A) (A) (A)
                 (A) (A) (A) (A) (A) (A) (A) (A) (A) (A) (A) (A)
                 (A) (A) (A) (A) (A) (A) (A) (A) (A) (A) (A) (A)
                 (A) (A) (A) (A) (A) (A) (A) (A) (A) (A) (A) (A)
                 (A) (A) (A) (A) (A) (A) (A) (A) (A) (A) (A) (A)
                 (A) (A) (A) (A) (A) (A) (A) (A) (A) (A) (A) (A)
                 (A) (A) (A) (A) (A) (A) (A) (A) (A) (A) (A) (A)
                 (A) (A) (A) (A) (A) (A) (A) (A) (A) (A) (A) (A)
                 (A) (A) (A) (A) (A) (A) (A) (A) (A) (A) (A) (A)
                 (A) (A) (A) (A) (A) (A) (A) (A) (A) (A) (A) (A)
                 (A) (A) (A) (A) (A) (A) (A) (A) (A) (A) (A) (A)
                 (A) (A) (A) (A) (A) (A) (A) (A) (A) (A) (A) (A)
                 (A) (A) (A) (A) (A) (A) (A) (A) (A) (A) (A) (A)
                 (A) (A) (A) (A) (A) (A) (A) (A) (A) (A) (A) (A)
                 (A) (A) (A) (A) (A) (A) (A) (A) (A) (A) (A) (A)
                 (A) (A) (A) (A) (A) (A) (A) (A) (A) (A) (A) (A)
                 (A) (A) (A) (A) (A) (A) (A) (A) (A) (A) (A) (A)
                 (A) (A) (A) (A) (A) (A) (A) (A) (A) (A) (A) (A)
                 (A) (A) (A) (A) (A) (A) (A) (A) (A) (A) (A) (A)
                 (A) (A) (A) (A) (A) (A) (A) (A) (A) (A) (A) (A)
                 (A) (A) (A) (A) (A) (A) (A) (A) (A) (A) (A) (A)
                 (A) (A) (A) (A) (A) (A) (A) (A) (A) (A) (A) (A)
                 (A) (A) (A) (A) (A) (A) (A) (A) (A) (A) (A) (A)
                 (A) (A) (A) (A) (A) (A) (A) (A) (A) (A) (A) (A)
                 (A) (A) (A) (A) (A) (A) (A) (A) (A) (A) (A) (A)
                 (A) (A) (A) (A) (A) (A) (A) (A) (A) (A) (A) (A)
                 (A) (A) (A) (A) (A) (A) (A) (A) (A) (A) (A) (A)
                 (A) (A) (A) (A) (A) (A) (A) (A) (A) (A) (A) (A)
                 (A) (A) (A) (A) (A) (A) (A)
 The electronic state is 1-A.
 Alpha  occ. eigenvalues --  -89.06575 -89.01578 -77.38639 -19.31992 -19.31898
 Alpha  occ. eigenvalues --  -10.38737 -10.38508 -10.35459 -10.34983 -10.32942
 Alpha  occ. eigenvalues --  -10.32846 -10.32787 -10.32571 -10.31647 -10.31570
 Alpha  occ. eigenvalues --  -10.31420 -10.31250 -10.31233 -10.31182 -10.31125
 Alpha  occ. eigenvalues --   -8.08320  -8.03529  -6.80025  -6.03221  -6.02922
 Alpha  occ. eigenvalues --   -6.02254  -5.98513  -5.97784  -5.97694  -4.94961
 Alpha  occ. eigenvalues --   -4.94761  -4.94594  -1.18890  -1.17635  -0.98096
 Alpha  occ. eigenvalues --   -0.97464  -0.91807  -0.90520  -0.87617  -0.86877
 Alpha  occ. eigenvalues --   -0.85812  -0.84672  -0.80497  -0.79619  -0.73078
 Alpha  occ. eigenvalues --   -0.72954  -0.71728  -0.70997  -0.69012  -0.66304
 Alpha  occ. eigenvalues --   -0.64083  -0.62416  -0.60796  -0.59393  -0.58093
 Alpha  occ. eigenvalues --   -0.56932  -0.56260  -0.55106  -0.54291  -0.53345
 Alpha  occ. eigenvalues --   -0.53171  -0.52715  -0.51552  -0.51360  -0.51055
 Alpha  occ. eigenvalues --   -0.48722  -0.47880  -0.47119  -0.46688  -0.45784
 Alpha  occ. eigenvalues --   -0.45465  -0.44005  -0.43174  -0.42620  -0.42588
 Alpha  occ. eigenvalues --   -0.42113  -0.40063  -0.35641  -0.34816  -0.34206
 Alpha  occ. eigenvalues --   -0.34068  -0.33559  -0.32437  -0.31182
 Alpha virt. eigenvalues --    0.00928   0.03218   0.03361   0.03618   0.03849
 Alpha virt. eigenvalues --    0.04212   0.04329   0.04503   0.04854   0.05255
 Alpha virt. eigenvalues --    0.05687   0.05942   0.06082   0.06590   0.07187
 Alpha virt. eigenvalues --    0.07362   0.07529   0.07610   0.08586   0.08747
 Alpha virt. eigenvalues --    0.09166   0.09416   0.10365   0.10538   0.10948
 Alpha virt. eigenvalues --    0.11485   0.11667   0.11934   0.12342   0.12811
 Alpha virt. eigenvalues --    0.13101   0.13345   0.13524   0.13900   0.13994
 Alpha virt. eigenvalues --    0.14121   0.14225   0.14502   0.14630   0.14824
 Alpha virt. eigenvalues --    0.14863   0.15380   0.15746   0.15831   0.16070
 Alpha virt. eigenvalues --    0.16533   0.16718   0.16915   0.16968   0.17186
 Alpha virt. eigenvalues --    0.17299   0.17412   0.17968   0.18105   0.18302
 Alpha virt. eigenvalues --    0.18563   0.18674   0.18862   0.19606   0.19893
 Alpha virt. eigenvalues --    0.19944   0.20378   0.20479   0.21089   0.21330
 Alpha virt. eigenvalues --    0.21477   0.22257   0.22321   0.22451   0.23068
 Alpha virt. eigenvalues --    0.23379   0.23441   0.23681   0.24211   0.24435
 Alpha virt. eigenvalues --    0.24767   0.25130   0.25262   0.25624   0.25918
 Alpha virt. eigenvalues --    0.26249   0.26712   0.26887   0.27204   0.27709
 Alpha virt. eigenvalues --    0.28058   0.28297   0.28420   0.28586   0.28958
 Alpha virt. eigenvalues --    0.29226   0.29330   0.29701   0.30083   0.30261
 Alpha virt. eigenvalues --    0.30475   0.31016   0.31052   0.31189   0.31721
 Alpha virt. eigenvalues --    0.31836   0.32236   0.32446   0.32664   0.32878
 Alpha virt. eigenvalues --    0.33204   0.33448   0.33967   0.34171   0.34387
 Alpha virt. eigenvalues --    0.34583   0.35004   0.35449   0.35669   0.35784
 Alpha virt. eigenvalues --    0.36479   0.36632   0.36994   0.37319   0.37541
 Alpha virt. eigenvalues --    0.37732   0.38081   0.38465   0.38735   0.39182
 Alpha virt. eigenvalues --    0.39741   0.39932   0.40255   0.40435   0.40783
 Alpha virt. eigenvalues --    0.41234   0.41495   0.41778   0.41970   0.42408
 Alpha virt. eigenvalues --    0.42650   0.42797   0.43242   0.43786   0.43857
 Alpha virt. eigenvalues --    0.44375   0.44489   0.45008   0.45616   0.45850
 Alpha virt. eigenvalues --    0.46812   0.47569   0.47786   0.48478   0.48585
 Alpha virt. eigenvalues --    0.48831   0.49171   0.49618   0.50512   0.51074
 Alpha virt. eigenvalues --    0.51420   0.51706   0.52224   0.52829   0.53098
 Alpha virt. eigenvalues --    0.53470   0.53596   0.53836   0.54086   0.54836
 Alpha virt. eigenvalues --    0.54974   0.55569   0.55659   0.56120   0.56315
 Alpha virt. eigenvalues --    0.56622   0.57199   0.57985   0.58616   0.58691
 Alpha virt. eigenvalues --    0.58977   0.59264   0.59589   0.60356   0.60603
 Alpha virt. eigenvalues --    0.60903   0.61059   0.61389   0.61569   0.61841
 Alpha virt. eigenvalues --    0.62350   0.62520   0.62771   0.63025   0.63400
 Alpha virt. eigenvalues --    0.63738   0.63986   0.64224   0.64492   0.64785
 Alpha virt. eigenvalues --    0.65198   0.65969   0.66361   0.66908   0.67023
 Alpha virt. eigenvalues --    0.67331   0.67607   0.68021   0.68471   0.68681
 Alpha virt. eigenvalues --    0.69523   0.70008   0.70380   0.70846   0.70907
 Alpha virt. eigenvalues --    0.71271   0.71926   0.72097   0.72338   0.72735
 Alpha virt. eigenvalues --    0.72918   0.73114   0.73285   0.73977   0.74388
 Alpha virt. eigenvalues --    0.74869   0.75080   0.75308   0.75963   0.76216
 Alpha virt. eigenvalues --    0.76530   0.77033   0.77615   0.77832   0.77917
 Alpha virt. eigenvalues --    0.78350   0.78843   0.79170   0.79423   0.79883
 Alpha virt. eigenvalues --    0.80445   0.80500   0.81012   0.81655   0.81723
 Alpha virt. eigenvalues --    0.82232   0.82838   0.83262   0.83331   0.83935
 Alpha virt. eigenvalues --    0.84207   0.84725   0.85269   0.85674   0.85993
 Alpha virt. eigenvalues --    0.86650   0.86933   0.87026   0.87196   0.87947
 Alpha virt. eigenvalues --    0.88277   0.88502   0.89117   0.89382   0.89724
 Alpha virt. eigenvalues --    0.90430   0.90942   0.91852   0.92168   0.92639
 Alpha virt. eigenvalues --    0.93163   0.93791   0.94106   0.94868   0.95195
 Alpha virt. eigenvalues --    0.95544   0.96360   0.97273   0.97764   0.97892
 Alpha virt. eigenvalues --    0.98301   1.00100   1.00806   1.01224   1.01581
 Alpha virt. eigenvalues --    1.02597   1.03088   1.04328   1.04632   1.05599
 Alpha virt. eigenvalues --    1.06063   1.06955   1.07202   1.07687   1.07935
 Alpha virt. eigenvalues --    1.09068   1.09706   1.10282   1.10668   1.11378
 Alpha virt. eigenvalues --    1.11763   1.12282   1.12658   1.13488   1.14063
 Alpha virt. eigenvalues --    1.14675   1.15700   1.15899   1.16709   1.17556
 Alpha virt. eigenvalues --    1.18040   1.18862   1.19493   1.20475   1.22070
 Alpha virt. eigenvalues --    1.22786   1.23651   1.23893   1.24420   1.25562
 Alpha virt. eigenvalues --    1.26262   1.26635   1.27939   1.29060   1.30307
 Alpha virt. eigenvalues --    1.31581   1.33398   1.33783   1.34129   1.36018
 Alpha virt. eigenvalues --    1.37147   1.37710   1.38147   1.38402   1.38885
 Alpha virt. eigenvalues --    1.40855   1.41421   1.41793   1.42103   1.43536
 Alpha virt. eigenvalues --    1.43559   1.44583   1.44978   1.45698   1.46048
 Alpha virt. eigenvalues --    1.46643   1.47127   1.48096   1.48513   1.49144
 Alpha virt. eigenvalues --    1.49868   1.50506   1.51164   1.51777   1.52349
 Alpha virt. eigenvalues --    1.52765   1.54335   1.54437   1.55378   1.56266
 Alpha virt. eigenvalues --    1.56386   1.56956   1.57845   1.58189   1.58855
 Alpha virt. eigenvalues --    1.59481   1.60176   1.60330   1.61402   1.61898
 Alpha virt. eigenvalues --    1.62610   1.62912   1.63877   1.64345   1.65264
 Alpha virt. eigenvalues --    1.65993   1.66781   1.67209   1.68647   1.69237
 Alpha virt. eigenvalues --    1.70372   1.71268   1.71751   1.72507   1.72780
 Alpha virt. eigenvalues --    1.74171   1.74494   1.74809   1.75227   1.75753
 Alpha virt. eigenvalues --    1.76389   1.76642   1.76933   1.78024   1.79025
 Alpha virt. eigenvalues --    1.80294   1.80848   1.81367   1.82027   1.82103
 Alpha virt. eigenvalues --    1.82855   1.83707   1.84258   1.84763   1.85380
 Alpha virt. eigenvalues --    1.86597   1.87121   1.88084   1.89806   1.90180
 Alpha virt. eigenvalues --    1.90920   1.91749   1.92801   1.93080   1.93390
 Alpha virt. eigenvalues --    1.94156   1.94923   1.95431   1.95978   1.97410
 Alpha virt. eigenvalues --    1.98508   1.99731   2.00140   2.01077   2.01381
 Alpha virt. eigenvalues --    2.02116   2.02515   2.03909   2.04253   2.04901
 Alpha virt. eigenvalues --    2.05032   2.06023   2.07314   2.07869   2.08440
 Alpha virt. eigenvalues --    2.09778   2.10092   2.10680   2.11265   2.11749
 Alpha virt. eigenvalues --    2.12713   2.13988   2.14565   2.15058   2.15989
 Alpha virt. eigenvalues --    2.17310   2.17711   2.17928   2.19084   2.19249
 Alpha virt. eigenvalues --    2.19946   2.20850   2.21787   2.22681   2.24084
 Alpha virt. eigenvalues --    2.24900   2.25887   2.26682   2.28036   2.29274
 Alpha virt. eigenvalues --    2.32788   2.34485   2.34730   2.37890   2.38115
 Alpha virt. eigenvalues --    2.39124   2.39393   2.40599   2.42217   2.43731
 Alpha virt. eigenvalues --    2.46363   2.47114   2.47798   2.50330   2.51627
 Alpha virt. eigenvalues --    2.53375   2.54087   2.56099   2.57940   2.60661
 Alpha virt. eigenvalues --    2.61306   2.62389   2.63974   2.64343   2.66975
 Alpha virt. eigenvalues --    2.69900   2.72458   2.73146   2.75063   2.76057
 Alpha virt. eigenvalues --    2.76740   2.80676   2.82530   2.83843   2.84829
 Alpha virt. eigenvalues --    2.86519   2.87021   2.90005   2.93316   2.94868
 Alpha virt. eigenvalues --    2.95777   3.00241   3.07575   3.10572   3.12498
 Alpha virt. eigenvalues --    3.14894   3.15839   3.22828   3.35213   3.37434
 Alpha virt. eigenvalues --    3.39547   3.45297   3.48326   3.50858   3.51453
 Alpha virt. eigenvalues --    3.57768   3.58212   3.59295   3.62672   3.63663
 Alpha virt. eigenvalues --    3.68022   3.70329   3.81624   3.84582   3.86384
 Alpha virt. eigenvalues --    3.91495   4.62496   4.66800
          Condensed to atoms (all electrons):
               1          2          3          4          5          6
     1  C   12.824824  -5.996733   5.328525  -6.278894   5.604199  -5.598228
     2  C   -5.996733  17.203661  -8.809655   5.426573  -7.104826   5.681155
     3  C    5.328525  -8.809655  23.707631 -11.145904   4.196779  -6.096402
     4  C   -6.278894   5.426573 -11.145904  23.614887 -11.250199   5.265022
     5  C    5.604199  -7.104826   4.196779 -11.250199  24.378379  -7.284746
     6  C   -5.598228   5.681155  -6.096402   5.265022  -7.284746  14.776047
     7  H   -1.301090   0.658047  -0.192106   0.171386  -0.247566   0.612267
     8  H    0.515059  -0.380515   0.186122  -0.347231   1.088746  -1.475303
     9  H   -0.156954   0.833818  -1.988092   0.278859  -0.366330   0.160719
    10  H    0.563977  -1.687316   1.297152  -0.380772   0.226580  -0.418904
    11  H   -0.209562   0.163237  -0.204836   0.928244  -2.037794   0.619192
    12  C    0.221231  -0.280387  -0.744311  -2.625941  -1.360752  -0.788717
    13  C   -0.222772   0.321074  -0.619282   0.542094  -0.523520   0.335552
    14  O    0.032124  -0.070081   0.407624   0.042688   0.021062  -0.083322
    15  H   -0.003696  -0.021034  -0.148335   0.187229   0.059415   0.082995
    16  S   -0.003059   0.008474  -0.034022   0.133691  -0.031398  -0.005870
    17  H   -0.000221  -0.000695  -0.005798  -0.010610   0.000369   0.000059
    18  P   -0.027959   0.079661  -0.264974   0.570791  -0.276672  -0.008146
    19  C    0.006933   0.006985   0.026874  -0.008963   0.008866  -0.007615
    20  S   -0.000351  -0.004612  -0.022632  -0.083175   0.018679   0.003399
    21  C    0.021054   0.016906   0.089117  -0.145383   0.008881  -0.018052
    22  H    0.000103   0.000347   0.000470   0.001690  -0.000168  -0.000038
    23  C    0.000233   0.001243  -0.021658   0.039074  -0.003078   0.000499
    24  H   -0.000014  -0.000072   0.000117  -0.000086   0.000015   0.000003
    25  C   -0.010430  -0.039042  -0.040543  -0.126005   0.006484   0.009425
    26  C   -0.002053  -0.009260   0.039009  -0.038620   0.002264  -0.000025
    27  H   -0.005861   0.015953  -0.016302  -0.030362  -0.009125   0.000189
    28  C   -0.000724   0.001812   0.018807   0.076657  -0.014644   0.001546
    29  C    0.000000   0.000077   0.000247  -0.000237  -0.000021   0.000001
    30  O    0.000025   0.000119  -0.000600   0.000377  -0.000023  -0.000004
    31  H   -0.000000  -0.000014   0.000042  -0.000104   0.000005  -0.000001
    32  H   -0.000001   0.000022  -0.000030   0.000009  -0.000006   0.000001
    33  H    0.000670  -0.000722   0.003531   0.002040  -0.000021  -0.000118
    34  H    0.031708  -0.048704   0.136061  -0.387367   0.250230  -0.026254
    35  H   -0.022546   0.035401  -0.003941   0.298671  -0.200811   0.017991
               7          8          9         10         11         12
     1  C   -1.301090   0.515059  -0.156954   0.563977  -0.209562   0.221231
     2  C    0.658047  -0.380515   0.833818  -1.687316   0.163237  -0.280387
     3  C   -0.192106   0.186122  -1.988092   1.297152  -0.204836  -0.744311
     4  C    0.171386  -0.347231   0.278859  -0.380772   0.928244  -2.625941
     5  C   -0.247566   1.088746  -0.366330   0.226580  -2.037794  -1.360752
     6  C    0.612267  -1.475303   0.160719  -0.418904   0.619192  -0.788717
     7  H    2.181685  -0.107531  -0.023283  -0.114202  -0.025977  -0.014403
     8  H   -0.107531   2.239549   0.016695  -0.030148  -0.158661   0.072155
     9  H   -0.023283   0.016695   3.458822  -0.196770  -0.043235   0.128426
    10  H   -0.114202  -0.030148  -0.196770   2.305420   0.016993   0.061343
    11  H   -0.025977  -0.158661  -0.043235   0.016993   2.846126  -0.027245
    12  C   -0.014403   0.072155   0.128426   0.061343  -0.027245  14.006491
    13  C   -0.000912  -0.007961  -0.020847   0.000868   0.059967  -0.302656
    14  O    0.001082  -0.002252  -0.180763   0.000515   0.014937  -0.893640
    15  H    0.000144   0.002509   0.025340   0.002038  -0.045219  -1.359127
    16  S   -0.000091  -0.000554   0.013369   0.000531   0.003755   0.049433
    17  H   -0.000010  -0.000000   0.000135   0.000078  -0.000339   0.038011
    18  P   -0.000594   0.003043  -0.016627   0.001258  -0.015227  -1.814418
    19  C    0.000221  -0.000108   0.043672  -0.001729   0.001299   0.052785
    20  S   -0.000036  -0.000033   0.001363   0.000045  -0.002002   0.201302
    21  C    0.000494  -0.000454   0.046552  -0.003594   0.002477   0.300599
    22  H    0.000002  -0.000000  -0.000489  -0.000034   0.000040  -0.005253
    23  C    0.000008   0.000035   0.018591  -0.001029   0.000197  -0.019090
    24  H   -0.000000   0.000000  -0.000290   0.000012  -0.000002   0.000325
    25  C   -0.000151  -0.000128  -0.020389   0.004336   0.002817   0.278224
    26  C   -0.000048  -0.000026  -0.034435   0.002053  -0.000306   0.058282
    27  H   -0.000418   0.000164  -0.003377   0.000110   0.001587   0.137623
    28  C   -0.000007  -0.000041  -0.052090   0.000863   0.001221  -0.182256
    29  C   -0.000000   0.000000  -0.000105   0.000012  -0.000001  -0.000090
    30  O    0.000001  -0.000000   0.001003  -0.000072   0.000002  -0.001254
    31  H    0.000000  -0.000000  -0.000014   0.000001  -0.000000   0.000163
    32  H   -0.000000   0.000000   0.000101   0.000001  -0.000000  -0.000074
    33  H    0.000035  -0.000010  -0.004064   0.000149   0.000048  -0.003720
    34  H    0.001208  -0.002798  -0.021272  -0.002115   0.025785  -0.126120
    35  H   -0.000098   0.002665   0.017458  -0.001018  -0.034831   0.108520
              13         14         15         16         17         18
     1  C   -0.222772   0.032124  -0.003696  -0.003059  -0.000221  -0.027959
     2  C    0.321074  -0.070081  -0.021034   0.008474  -0.000695   0.079661
     3  C   -0.619282   0.407624  -0.148335  -0.034022  -0.005798  -0.264974
     4  C    0.542094   0.042688   0.187229   0.133691  -0.010610   0.570791
     5  C   -0.523520   0.021062   0.059415  -0.031398   0.000369  -0.276672
     6  C    0.335552  -0.083322   0.082995  -0.005870   0.000059  -0.008146
     7  H   -0.000912   0.001082   0.000144  -0.000091  -0.000010  -0.000594
     8  H   -0.007961  -0.002252   0.002509  -0.000554  -0.000000   0.003043
     9  H   -0.020847  -0.180763   0.025340   0.013369   0.000135  -0.016627
    10  H    0.000868   0.000515   0.002038   0.000531   0.000078   0.001258
    11  H    0.059967   0.014937  -0.045219   0.003755  -0.000339  -0.015227
    12  C   -0.302656  -0.893640  -1.359127   0.049433   0.038011  -1.814418
    13  C    5.136786   0.025689   0.271075   0.131324  -0.000677   0.342353
    14  O    0.025689   9.892995  -0.110035  -0.015872  -0.021976  -0.241253
    15  H    0.271075  -0.110035   2.495023  -0.027245   0.000801   0.330250
    16  S    0.131324  -0.015872  -0.027245  16.405642   0.013361  -0.223934
    17  H   -0.000677  -0.021976   0.000801   0.013361   3.498000  -0.301516
    18  P    0.342353  -0.241253   0.330250  -0.223934  -0.301516  20.247819
    19  C   -0.094516  -0.099699   0.018792  -0.120534  -3.375126  -1.349500
    20  S    0.012876  -0.117199  -0.016526  -0.040995  -0.034901   0.157472
    21  C   -0.063380  -0.186465  -0.120401  -0.209187   1.520755  -0.423316
    22  H    0.000656   0.002068  -0.000487  -0.000899  -0.309230   0.011234
    23  C    0.006609  -0.056021  -0.002998  -0.056881   1.458455   0.045749
    24  H   -0.000110  -0.000077   0.000022   0.000117   0.004425  -0.000927
    25  C    0.011982   0.351849  -0.017169   0.371793  -0.002652  -2.266304
    26  C   -0.019743   0.016371   0.002839   0.040944  -0.661619  -0.199461
    27  H   -0.037422  -0.013935  -0.022472  -0.029974  -0.032272  -0.409555
    28  C    0.038713   0.082085  -0.012142  -0.004718   0.079915   0.561031
    29  C    0.000174  -0.000477  -0.000025  -0.000048   0.023993  -0.015315
    30  O    0.000954   0.000231  -0.000043   0.000712   0.006678  -0.000188
    31  H   -0.000097  -0.000049   0.000006   0.000169   0.004028  -0.001845
    32  H    0.000088  -0.000036  -0.000001  -0.000085  -0.000612  -0.000165
    33  H   -0.000518   0.000855   0.000478   0.000744   0.016127   0.008767
    34  H    0.192209   0.037226   0.121068  -0.154522  -0.003725  -0.014965
    35  H    0.019428   0.001852  -0.160809  -0.165965   0.000871   0.077696
              19         20         21         22         23         24
     1  C    0.006933  -0.000351   0.021054   0.000103   0.000233  -0.000014
     2  C    0.006985  -0.004612   0.016906   0.000347   0.001243  -0.000072
     3  C    0.026874  -0.022632   0.089117   0.000470  -0.021658   0.000117
     4  C   -0.008963  -0.083175  -0.145383   0.001690   0.039074  -0.000086
     5  C    0.008866   0.018679   0.008881  -0.000168  -0.003078   0.000015
     6  C   -0.007615   0.003399  -0.018052  -0.000038   0.000499   0.000003
     7  H    0.000221  -0.000036   0.000494   0.000002   0.000008  -0.000000
     8  H   -0.000108  -0.000033  -0.000454  -0.000000   0.000035   0.000000
     9  H    0.043672   0.001363   0.046552  -0.000489   0.018591  -0.000290
    10  H   -0.001729   0.000045  -0.003594  -0.000034  -0.001029   0.000012
    11  H    0.001299  -0.002002   0.002477   0.000040   0.000197  -0.000002
    12  C    0.052785   0.201302   0.300599  -0.005253  -0.019090   0.000325
    13  C   -0.094516   0.012876  -0.063380   0.000656   0.006609  -0.000110
    14  O   -0.099699  -0.117199  -0.186465   0.002068  -0.056021  -0.000077
    15  H    0.018792  -0.016526  -0.120401  -0.000487  -0.002998   0.000022
    16  S   -0.120534  -0.040995  -0.209187  -0.000899  -0.056881   0.000117
    17  H   -3.375126  -0.034901   1.520755  -0.309230   1.458455   0.004425
    18  P   -1.349500   0.157472  -0.423316   0.011234   0.045749  -0.000927
    19  C   28.247809   0.109879 -10.103411   1.138797  -9.456518   0.136296
    20  S    0.109879  16.285625   0.030437   0.003498  -0.011426  -0.000107
    21  C  -10.103411   0.030437  23.321087  -0.149309   3.549571   0.012383
    22  H    1.138797   0.003498  -0.149309   3.818868  -2.780348  -0.063920
    23  C   -9.456518  -0.011426   3.549571  -2.780348  22.221442   0.217565
    24  H    0.136296  -0.000107   0.012383  -0.063920   0.217565   1.302769
    25  C    3.802039   0.089590 -10.959532   0.056467  -8.612084  -0.021901
    26  C    5.077660   0.001500  -8.351283   0.702229  -7.394080  -0.269227
    27  H    0.118065   0.023304   1.516052   0.019018   0.290298  -0.000731
    28  C   -8.809811  -0.002316   6.842067  -0.121207   4.649279  -0.119706
    29  C    0.063571  -0.000089  -0.128721  -0.048593   0.080577   0.310378
    30  O   -0.197917   0.000001   0.371549  -0.142036   1.078983   0.116370
    31  H    0.107737  -0.000075   0.000642  -0.061924   0.173544  -0.087159
    32  H   -0.122868   0.000017  -0.018483   0.032543  -0.494023  -0.445029
    33  H    0.294615  -0.000910  -1.022773  -0.046381  -0.045092   0.009622
    34  H   -0.019341  -0.010148  -0.050680   0.000417  -0.004230  -0.000009
    35  H    0.001154  -0.001358  -0.001394   0.000009   0.001863  -0.000005
              25         26         27         28         29         30
     1  C   -0.010430  -0.002053  -0.005861  -0.000724   0.000000   0.000025
     2  C   -0.039042  -0.009260   0.015953   0.001812   0.000077   0.000119
     3  C   -0.040543   0.039009  -0.016302   0.018807   0.000247  -0.000600
     4  C   -0.126005  -0.038620  -0.030362   0.076657  -0.000237   0.000377
     5  C    0.006484   0.002264  -0.009125  -0.014644  -0.000021  -0.000023
     6  C    0.009425  -0.000025   0.000189   0.001546   0.000001  -0.000004
     7  H   -0.000151  -0.000048  -0.000418  -0.000007  -0.000000   0.000001
     8  H   -0.000128  -0.000026   0.000164  -0.000041   0.000000  -0.000000
     9  H   -0.020389  -0.034435  -0.003377  -0.052090  -0.000105   0.001003
    10  H    0.004336   0.002053   0.000110   0.000863   0.000012  -0.000072
    11  H    0.002817  -0.000306   0.001587   0.001221  -0.000001   0.000002
    12  C    0.278224   0.058282   0.137623  -0.182256  -0.000090  -0.001254
    13  C    0.011982  -0.019743  -0.037422   0.038713   0.000174   0.000954
    14  O    0.351849   0.016371  -0.013935   0.082085  -0.000477   0.000231
    15  H   -0.017169   0.002839  -0.022472  -0.012142  -0.000025  -0.000043
    16  S    0.371793   0.040944  -0.029974  -0.004718  -0.000048   0.000712
    17  H   -0.002652  -0.661619  -0.032272   0.079915   0.023993   0.006678
    18  P   -2.266304  -0.199461  -0.409555   0.561031  -0.015315  -0.000188
    19  C    3.802039   5.077660   0.118065  -8.809811   0.063571  -0.197917
    20  S    0.089590   0.001500   0.023304  -0.002316  -0.000089   0.000001
    21  C  -10.959532  -8.351283   1.516052   6.842067  -0.128721   0.371549
    22  H    0.056467   0.702229   0.019018  -0.121207  -0.048593  -0.142036
    23  C   -8.612084  -7.394080   0.290298   4.649279   0.080577   1.078983
    24  H   -0.021901  -0.269227  -0.000731  -0.119706   0.310378   0.116370
    25  C   29.974424   7.823278  -3.786803 -13.542057   0.199109  -0.297013
    26  C    7.823278  18.083749  -1.120917  -9.636201   0.061323  -1.308282
    27  H   -3.786803  -1.120917   4.205810   1.511735  -0.007413  -0.020443
    28  C  -13.542057  -9.636201   1.511735  27.607906  -0.437704  -0.011110
    29  C    0.199109   0.061323  -0.007413  -0.437704   4.158748   0.137464
    30  O   -0.297013  -1.308282  -0.020443  -0.011110   0.137464   9.375104
    31  H   -0.020919  -0.222233  -0.000848  -0.078189   0.311170   0.110653
    32  H    0.090592   0.541777  -0.000447   0.164771   0.301426  -0.407026
    33  H    1.129906   2.031761  -0.246978  -3.084014   0.044493  -0.107152
    34  H    0.054393  -0.001476  -0.039340   0.024012  -0.000022   0.000454
    35  H   -0.014615  -0.002168  -0.001144   0.002000   0.000004   0.000061
              31         32         33         34         35
     1  C   -0.000000  -0.000001   0.000670   0.031708  -0.022546
     2  C   -0.000014   0.000022  -0.000722  -0.048704   0.035401
     3  C    0.000042  -0.000030   0.003531   0.136061  -0.003941
     4  C   -0.000104   0.000009   0.002040  -0.387367   0.298671
     5  C    0.000005  -0.000006  -0.000021   0.250230  -0.200811
     6  C   -0.000001   0.000001  -0.000118  -0.026254   0.017991
     7  H    0.000000  -0.000000   0.000035   0.001208  -0.000098
     8  H   -0.000000   0.000000  -0.000010  -0.002798   0.002665
     9  H   -0.000014   0.000101  -0.004064  -0.021272   0.017458
    10  H    0.000001   0.000001   0.000149  -0.002115  -0.001018
    11  H   -0.000000  -0.000000   0.000048   0.025785  -0.034831
    12  C    0.000163  -0.000074  -0.003720  -0.126120   0.108520
    13  C   -0.000097   0.000088  -0.000518   0.192209   0.019428
    14  O   -0.000049  -0.000036   0.000855   0.037226   0.001852
    15  H    0.000006  -0.000001   0.000478   0.121068  -0.160809
    16  S    0.000169  -0.000085   0.000744  -0.154522  -0.165965
    17  H    0.004028  -0.000612   0.016127  -0.003725   0.000871
    18  P   -0.001845  -0.000165   0.008767  -0.014965   0.077696
    19  C    0.107737  -0.122868   0.294615  -0.019341   0.001154
    20  S   -0.000075   0.000017  -0.000910  -0.010148  -0.001358
    21  C    0.000642  -0.018483  -1.022773  -0.050680  -0.001394
    22  H   -0.061924   0.032543  -0.046381   0.000417   0.000009
    23  C    0.173544  -0.494023  -0.045092  -0.004230   0.001863
    24  H   -0.087159  -0.445029   0.009622  -0.000009  -0.000005
    25  C   -0.020919   0.090592   1.129906   0.054393  -0.014615
    26  C   -0.222233   0.541777   2.031761  -0.001476  -0.002168
    27  H   -0.000848  -0.000447  -0.246978  -0.039340  -0.001144
    28  C   -0.078189   0.164771  -3.084014   0.024012   0.002000
    29  C    0.311170   0.301426   0.044493  -0.000022   0.000004
    30  O    0.110653  -0.407026  -0.107152   0.000454   0.000061
    31  H    1.298977  -0.442014   0.009357  -0.000024  -0.000006
    32  H   -0.442014   2.212959  -0.010732  -0.000006   0.000006
    33  H    0.009357  -0.010732   2.847012  -0.000616   0.000213
    34  H   -0.000024  -0.000006  -0.000616   1.815685  -0.472110
    35  H   -0.000006   0.000006   0.000213  -0.472110   1.765975
 Mulliken charges:
               1
     1  C    0.690482
     2  C   -0.000899
     3  C    0.921316
     4  C    1.279866
     5  C    0.840748
     6  C    0.245683
     7  H   -0.598058
     8  H   -0.612990
     9  H   -0.915497
    10  H   -0.646627
    11  H   -0.882685
    12  C    0.834540
    13  C    0.463943
    14  O   -0.838100
    15  H   -0.532259
    16  S   -0.048206
    17  H   -0.904082
    18  P    0.435734
    19  C    0.503605
    20  S   -0.590094
    21  C    0.305195
    22  H   -1.058140
    23  C    1.124740
    24  H   -0.101045
    25  C    1.521026
    26  C    0.786424
    27  H   -1.003772
    28  C    0.444521
    29  C    0.946092
    30  O   -0.707578
    31  H   -0.100974
    32  H   -0.402677
    33  H   -0.826604
    34  H   -0.304609
    35  H   -0.269018
 Sum of Mulliken charges =  -0.00000
 Mulliken charges with hydrogens summed into heavy atoms:
               1
     1  C    0.092424
     2  C   -0.647526
     3  C    0.005819
     4  C    1.279866
     5  C   -0.041937
     6  C   -0.367306
    12  C    0.302281
    13  C   -0.109685
    14  O   -0.838100
    16  S   -0.048206
    18  P    0.435734
    19  C   -0.400477
    20  S   -0.590094
    21  C    0.305195
    23  C    0.066600
    25  C    0.517255
    26  C    0.786424
    28  C   -0.382084
    29  C    0.341397
    30  O   -0.707578
 Electronic spatial extent (au):  <R**2>=           8922.6177
 Charge=             -0.0000 electrons
 Dipole moment (field-independent basis, Debye):
    X=              0.5484    Y=             -5.0875    Z=              2.1966  Tot=              5.5685
 Quadrupole moment (field-independent basis, Debye-Ang):
   XX=            -92.3103   YY=           -148.2700   ZZ=           -144.7487
   XY=             -4.8178   XZ=             -9.7319   YZ=              4.7271
 Traceless Quadrupole moment (field-independent basis, Debye-Ang):
   XX=             36.1327   YY=            -19.8270   ZZ=            -16.3057
   XY=             -4.8178   XZ=             -9.7319   YZ=              4.7271
 Octapole moment (field-independent basis, Debye-Ang**2):
  XXX=            124.2731  YYY=            -84.1615  ZZZ=             17.0040  XYY=            -14.6219
  XXY=            -40.7279  XXZ=            -40.8809  XZZ=             15.4566  YZZ=             -9.7293
  YYZ=              7.7322  XYZ=             -4.4931
 Hexadecapole moment (field-independent basis, Debye-Ang**3):
 XXXX=          -6676.0951 YYYY=          -2716.2422 ZZZZ=           -881.5269 XXXY=           -267.5694
 XXXZ=           -183.6942 YYYX=             18.3126 YYYZ=             49.9810 ZZZX=            -51.1154
 ZZZY=              3.5246 XXYY=          -1723.9414 XXZZ=          -1648.1881 YYZZ=           -610.7370
 XXYZ=             86.9440 YYXZ=             15.5455 ZZXY=            -53.5968
 N-N= 1.898076743685D+03 E-N=-8.200506822587D+03  KE= 1.861157527369D+03
 Unable to Open any file for archive entry.
 1\1\GINC-R175\SP\RwB97XD\Aug-CC-pVDZ\C15H15O2P1S2\ZLAB\23-May-2025\0\\
 #n #n nmr=giao wb97xd/aug-cc-pvdz scrf=(cpcm,solvent=Chloroform) integ
 ral=(acc2e=14,grid=superfinegrid)\\OBn cis NMR\\0,1\C,0,-5.07417,-2.54
 695,-0.53451\C,0,-3.70681,-2.83293,-0.48409\C,0,-2.77842,-1.80681,-0.2
 9536\C,0,-3.21029,-0.48113,-0.15896\C,0,-4.58102,-0.19848,-0.22192\C,0
 ,-5.5098,-1.22585,-0.40377\H,0,-5.794,-3.34641,-0.68364\H,0,-6.56931,-
 0.99234,-0.45373\H,0,-1.71634,-2.02717,-0.27621\H,0,-3.36076,-3.85623,
 -0.59803\H,0,-4.92453,0.82985,-0.13676\C,0,-2.23772,0.64616,0.10463\C,
 0,-1.97458,0.86111,1.6067\O,0,-0.96371,0.3442,-0.50185\H,0,-2.62337,1.
 57632,-0.33153\S,0,-0.50249,1.96338,1.77351\H,0,2.86967,1.55285,-1.406
 57\P,0,0.22859,1.44932,-0.19416\C,0,2.85079,0.68123,-0.76011\S,0,0.409
 17,2.95221,-1.42038\C,0,1.68578,0.38239,-0.04734\H,0,4.86981,0.12698,-
 1.2256\C,0,3.98402,-0.12927,-0.65737\H,0,6.06189,-1.89647,-1.43368\C,0
 ,1.67254,-0.74748,0.79354\C,0,3.95543,-1.25566,0.17552\H,0,0.78415,-0.
 98987,1.36745\C,0,2.78979,-1.55991,0.90256\C,0,6.21475,-1.8664,-0.3483
 1\O,0,4.99711,-2.11179,0.35139\H,0,6.64858,-0.90058,-0.06322\H,0,6.890
 6,-2.6696,-0.05396\H,0,2.7905,-2.4336,1.54583\H,0,-1.78625,-0.09466,2.
 10282\H,0,-2.82523,1.35228,2.08542\\Version=ES64L-G16RevC.01\State=1-A
 \HF=-1868.7150169\RMSD=5.241e-09\Dipole=0.2157747,-2.0015747,0.8641971
 \Quadrupole=26.8637892,-14.7409011,-12.1228881,-3.5819289,-7.2354001,3
 .5144534\PG=C01 [X(C15H15O2P1S2)]\\@
 The archive entry for this job was punched.


 IF AT FIRST YOU DON'T SUCCEED, TRY, TRY AGAIN.
 THEN GIVE UP;
 THERE'S NO USE BEING A DAMN FOOL ABOUT IT.

                                 -- W. C. FIELDS
 Job cpu time:       0 days  4 hours  8 minutes 48.6 seconds.
 Elapsed time:       0 days  0 hours 15 minutes 53.7 seconds.
 File lengths (MBytes):  RWF=    282 Int=      0 D2E=      0 Chk=     30 Scr=      1
 Normal termination of Gaussian 16 at Fri May 23 06:56:46 2025.
