 Entering Gaussian System, Link 0=g16
 Initial command:
 /opt/packages/gaussian/g16RevC.01/g16/l1.exe "/ocean/projects/che200051p/zlab/tmp/Gau-63448.inp" -scrdir="/ocean/projects/che200051p/zlab/tmp/"
 Entering Link 1 = /opt/packages/gaussian/g16RevC.01/g16/l1.exe PID=     63449.
  
 Copyright (c) 1988-2019, Gaussian, Inc.  All Rights Reserved.
  
 This is part of the Gaussian(R) 16 program.  It is based on
 the Gaussian(R) 09 system (copyright 2009, Gaussian, Inc.),
 the Gaussian(R) 03 system (copyright 2003, Gaussian, Inc.),
 the Gaussian(R) 98 system (copyright 1998, Gaussian, Inc.),
 the Gaussian(R) 94 system (copyright 1995, Gaussian, Inc.),
 the Gaussian 92(TM) system (copyright 1992, Gaussian, Inc.),
 the Gaussian 90(TM) system (copyright 1990, Gaussian, Inc.),
 the Gaussian 88(TM) system (copyright 1988, Gaussian, Inc.),
 the Gaussian 86(TM) system (copyright 1986, Carnegie Mellon
 University), and the Gaussian 82(TM) system (copyright 1983,
 Carnegie Mellon University). Gaussian is a federally registered
 trademark of Gaussian, Inc.
  
 This software contains proprietary and confidential information,
 including trade secrets, belonging to Gaussian, Inc.
  
 This software is provided under written license and may be
 used, copied, transmitted, or stored only in accord with that
 written license.
  
 The following legend is applicable only to US Government
 contracts under FAR:
  
                    RESTRICTED RIGHTS LEGEND
  
 Use, reproduction and disclosure by the US Government is
 subject to restrictions as set forth in subparagraphs (a)
 and (c) of the Commercial Computer Software - Restricted
 Rights clause in FAR 52.227-19.
  
 Gaussian, Inc.
 340 Quinnipiac St., Bldg. 40, Wallingford CT 06492
  
  
 ---------------------------------------------------------------
 Warning -- This program may not be used in any manner that
 competes with the business of Gaussian, Inc. or will provide
 assistance to any competitor of Gaussian, Inc.  The licensee
 of this program is prohibited from giving any competitor of
 Gaussian, Inc. access to this program.  By using this program,
 the user acknowledges that Gaussian, Inc. is engaged in the
 business of creating and licensing software in the field of
 computational chemistry and represents and warrants to the
 licensee that it is not a competitor of Gaussian, Inc. and that
 it will not use this program in any manner prohibited above.
 ---------------------------------------------------------------
  

 Cite this work as:
 Gaussian 16, Revision C.01,
 M. J. Frisch, G. W. Trucks, H. B. Schlegel, G. E. Scuseria, 
 M. A. Robb, J. R. Cheeseman, G. Scalmani, V. Barone, 
 G. A. Petersson, H. Nakatsuji, X. Li, M. Caricato, A. V. Marenich, 
 J. Bloino, B. G. Janesko, R. Gomperts, B. Mennucci, H. P. Hratchian, 
 J. V. Ortiz, A. F. Izmaylov, J. L. Sonnenberg, D. Williams-Young, 
 F. Ding, F. Lipparini, F. Egidi, J. Goings, B. Peng, A. Petrone, 
 T. Henderson, D. Ranasinghe, V. G. Zakrzewski, J. Gao, N. Rega, 
 G. Zheng, W. Liang, M. Hada, M. Ehara, K. Toyota, R. Fukuda, 
 J. Hasegawa, M. Ishida, T. Nakajima, Y. Honda, O. Kitao, H. Nakai, 
 T. Vreven, K. Throssell, J. A. Montgomery, Jr., J. E. Peralta, 
 F. Ogliaro, M. J. Bearpark, J. J. Heyd, E. N. Brothers, K. N. Kudin, 
 V. N. Staroverov, T. A. Keith, R. Kobayashi, J. Normand, 
 K. Raghavachari, A. P. Rendell, J. C. Burant, S. S. Iyengar, 
 J. Tomasi, M. Cossi, J. M. Millam, M. Klene, C. Adamo, R. Cammi, 
 J. W. Ochterski, R. L. Martin, K. Morokuma, O. Farkas, 
 J. B. Foresman, and D. J. Fox, Gaussian, Inc., Wallingford CT, 2019.
 
 ******************************************
 Gaussian 16:  ES64L-G16RevC.01  3-Jul-2019
                21-May-2025 
 ******************************************
 %NProcShared=16
 Will use up to   16 processors via shared memory.
 %Chk=SBn_endo_opt2.chk
 -----------------------------
 #n B3LYP/6-31+G(d,p) Opt Freq
 -----------------------------
 1/18=20,19=15,26=3,38=1/1,3;
 2/9=110,12=2,17=6,18=5,40=1/2;
 3/5=1,6=6,7=111,11=2,25=1,30=1,71=1,74=-5/1,2,3;
 4//1;
 5/5=2,38=5/2;
 6/7=2,8=2,9=2,10=2,28=1/1;
 7//1,2,3,16;
 1/18=20,19=15,26=3/3(2);
 2/9=110/2;
 99//99;
 2/9=110/2;
 3/5=1,6=6,7=111,11=2,25=1,30=1,71=1,74=-5/1,2,3;
 4/5=5,16=3,69=1/1;
 5/5=2,38=5/2;
 7//1,2,3,16;
 1/18=20,19=15,26=3/3(-5);
 2/9=110/2;
 6/7=2,8=2,9=2,10=2,19=2,28=1/1;
 99/9=1/99;
 --------
 SBn endo
 --------
 Symbolic Z-matrix:
 Charge =  0 Multiplicity = 1
 C
 C                    1     1.39254 
 C                    2     1.39857  1     120.34074 
 C                    3     1.40254  2     120.71849  1     359.57802  0
 C                    4     1.40769  3     118.05267  2     0.99315  0
 C                    1     1.39091  2     119.78176  3     359.69342  0
 H                    1     1.08684  2     120.15851  3     180.00323  0
 H                    6     1.08708  1     120.08757  2     180.47728  0
 H                    3     1.08628  2     117.69667  1     179.59614  0
 H                    2     1.08738  1     119.71891  3     179.91901  0
 H                    5     1.08927  4     120.226  3     179.13851  0
 C                    4     1.50949  3     123.35239  2     181.52854  0
 C                    12    1.54273  4     117.78881  3     19.94249  0
 O                    13    1.43746  12    110.19799  4     181.96889  0
 H                    13    1.09506  12    110.49823  4     62.92357  0
 H                    13    1.09588  12    112.76496  4     302.35655  0
 S                    14    2.94422  13    135.63183  12    2.08593  0
 H                    14    2.53006  13    107.7886  12    135.84121  0
 P                    14    1.64327  13    113.11524  12    40.89495  0
 C                    18    1.08828  14    103.85193  13    260.31136  0
 S                    12    1.83209  4     112.80781  3     258.34548  0
 C                    20    1.40279  18    120.2715  14    353.13795  0
 H                    20    2.13889  18    92.16222  14    173.80372  0
 C                    23    1.08533  20    35.26221  18    178.80575  0
 H                    23    2.3386   20    141.70163  18    197.72193  0
 C                    22    1.40281  20    118.24422  18    180.97377  0
 C                    24    1.3938   23    121.61165  20    180.48947  0
 H                    26    1.08894  22    120.35423  20    179.01332  0
 C                    27    1.39534  24    119.19595  23    180.92238  0
 C                    25    1.09457  23    90.27564  20    295.08056  0
 O                    27    1.36713  24    125.92943  23    0.73673  0
 H                    30    1.09551  25    111.14647  23    305.15799  0
 H                    30    1.09435  25    107.7863  23    187.45104  0
 H                    29    1.08783  27    119.61464  24    179.94993  0
 H                    12    1.09782  4     108.40239  3     141.38883  0
 

 GradGradGradGradGradGradGradGradGradGradGradGradGradGradGradGradGradGrad
 Berny optimization.
 Initialization pass.
                           ----------------------------
                           !    Initial Parameters    !
                           ! (Angstroms and Degrees)  !
 --------------------------                            --------------------------
 ! Name  Definition              Value          Derivative Info.                !
 --------------------------------------------------------------------------------
 ! R1    R(1,2)                  1.3925         estimate D2E/DX2                !
 ! R2    R(1,6)                  1.3909         estimate D2E/DX2                !
 ! R3    R(1,7)                  1.0868         estimate D2E/DX2                !
 ! R4    R(2,3)                  1.3986         estimate D2E/DX2                !
 ! R5    R(2,10)                 1.0874         estimate D2E/DX2                !
 ! R6    R(3,4)                  1.4025         estimate D2E/DX2                !
 ! R7    R(3,9)                  1.0863         estimate D2E/DX2                !
 ! R8    R(4,5)                  1.4077         estimate D2E/DX2                !
 ! R9    R(4,12)                 1.5095         estimate D2E/DX2                !
 ! R10   R(5,6)                  1.3959         estimate D2E/DX2                !
 ! R11   R(5,11)                 1.0893         estimate D2E/DX2                !
 ! R12   R(6,8)                  1.0871         estimate D2E/DX2                !
 ! R13   R(12,13)                1.5427         estimate D2E/DX2                !
 ! R14   R(12,21)                1.8321         estimate D2E/DX2                !
 ! R15   R(12,35)                1.0978         estimate D2E/DX2                !
 ! R16   R(13,14)                1.4375         estimate D2E/DX2                !
 ! R17   R(13,15)                1.0951         estimate D2E/DX2                !
 ! R18   R(13,16)                1.0959         estimate D2E/DX2                !
 ! R19   R(14,19)                1.6433         estimate D2E/DX2                !
 ! R20   R(17,19)                1.9504         estimate D2E/DX2                !
 ! R21   R(18,20)                1.0883         estimate D2E/DX2                !
 ! R22   R(19,21)                2.1095         estimate D2E/DX2                !
 ! R23   R(19,22)                1.7908         estimate D2E/DX2                !
 ! R24   R(20,22)                1.4028         estimate D2E/DX2                !
 ! R25   R(20,24)                1.4007         estimate D2E/DX2                !
 ! R26   R(22,26)                1.4028         estimate D2E/DX2                !
 ! R27   R(23,24)                1.0853         estimate D2E/DX2                !
 ! R28   R(24,27)                1.3938         estimate D2E/DX2                !
 ! R29   R(25,30)                1.0946         estimate D2E/DX2                !
 ! R30   R(26,28)                1.0889         estimate D2E/DX2                !
 ! R31   R(26,29)                1.3972         estimate D2E/DX2                !
 ! R32   R(27,29)                1.3953         estimate D2E/DX2                !
 ! R33   R(27,31)                1.3671         estimate D2E/DX2                !
 ! R34   R(29,34)                1.0878         estimate D2E/DX2                !
 ! R35   R(30,31)                1.4226         estimate D2E/DX2                !
 ! R36   R(30,32)                1.0955         estimate D2E/DX2                !
 ! R37   R(30,33)                1.0943         estimate D2E/DX2                !
 ! A1    A(2,1,6)              119.7818         estimate D2E/DX2                !
 ! A2    A(2,1,7)              120.1585         estimate D2E/DX2                !
 ! A3    A(6,1,7)              120.059          estimate D2E/DX2                !
 ! A4    A(1,2,3)              120.3407         estimate D2E/DX2                !
 ! A5    A(1,2,10)             119.7189         estimate D2E/DX2                !
 ! A6    A(3,2,10)             119.9403         estimate D2E/DX2                !
 ! A7    A(2,3,4)              120.7185         estimate D2E/DX2                !
 ! A8    A(2,3,9)              117.6967         estimate D2E/DX2                !
 ! A9    A(4,3,9)              121.5848         estimate D2E/DX2                !
 ! A10   A(3,4,5)              118.0527         estimate D2E/DX2                !
 ! A11   A(3,4,12)             123.3524         estimate D2E/DX2                !
 ! A12   A(5,4,12)             118.5928         estimate D2E/DX2                !
 ! A13   A(4,5,6)              121.1561         estimate D2E/DX2                !
 ! A14   A(4,5,11)             120.226          estimate D2E/DX2                !
 ! A15   A(6,5,11)             118.6179         estimate D2E/DX2                !
 ! A16   A(1,6,5)              119.9423         estimate D2E/DX2                !
 ! A17   A(1,6,8)              120.0876         estimate D2E/DX2                !
 ! A18   A(5,6,8)              119.9701         estimate D2E/DX2                !
 ! A19   A(4,12,13)            117.7888         estimate D2E/DX2                !
 ! A20   A(4,12,21)            112.8078         estimate D2E/DX2                !
 ! A21   A(4,12,35)            108.4024         estimate D2E/DX2                !
 ! A22   A(13,12,21)           104.2735         estimate D2E/DX2                !
 ! A23   A(13,12,35)           106.9031         estimate D2E/DX2                !
 ! A24   A(21,12,35)           105.9101         estimate D2E/DX2                !
 ! A25   A(12,13,14)           110.198          estimate D2E/DX2                !
 ! A26   A(12,13,15)           110.4982         estimate D2E/DX2                !
 ! A27   A(12,13,16)           112.765          estimate D2E/DX2                !
 ! A28   A(14,13,15)           107.8118         estimate D2E/DX2                !
 ! A29   A(14,13,16)           107.7075         estimate D2E/DX2                !
 ! A30   A(15,13,16)           107.6822         estimate D2E/DX2                !
 ! A31   A(13,14,19)           113.1152         estimate D2E/DX2                !
 ! A32   A(14,19,17)           109.7324         estimate D2E/DX2                !
 ! A33   A(14,19,21)            99.0135         estimate D2E/DX2                !
 ! A34   A(14,19,22)           104.273          estimate D2E/DX2                !
 ! A35   A(17,19,21)           117.7838         estimate D2E/DX2                !
 ! A36   A(17,19,22)           118.4195         estimate D2E/DX2                !
 ! A37   A(21,19,22)           105.1433         estimate D2E/DX2                !
 ! A38   A(18,20,22)           120.2715         estimate D2E/DX2                !
 ! A39   A(18,20,24)           118.7294         estimate D2E/DX2                !
 ! A40   A(22,20,24)           120.9865         estimate D2E/DX2                !
 ! A41   A(12,21,19)            90.7806         estimate D2E/DX2                !
 ! A42   A(19,22,20)           121.8744         estimate D2E/DX2                !
 ! A43   A(19,22,26)           119.8064         estimate D2E/DX2                !
 ! A44   A(20,22,26)           118.2442         estimate D2E/DX2                !
 ! A45   A(20,24,23)           118.1642         estimate D2E/DX2                !
 ! A46   A(20,24,27)           120.2223         estimate D2E/DX2                !
 ! A47   A(23,24,27)           121.6116         estimate D2E/DX2                !
 ! A48   A(22,26,28)           120.3542         estimate D2E/DX2                !
 ! A49   A(22,26,29)           120.6728         estimate D2E/DX2                !
 ! A50   A(28,26,29)           118.9598         estimate D2E/DX2                !
 ! A51   A(24,27,29)           119.196          estimate D2E/DX2                !
 ! A52   A(24,27,31)           125.9294         estimate D2E/DX2                !
 ! A53   A(29,27,31)           114.8744         estimate D2E/DX2                !
 ! A54   A(26,29,27)           120.662          estimate D2E/DX2                !
 ! A55   A(26,29,34)           119.7094         estimate D2E/DX2                !
 ! A56   A(27,29,34)           119.6146         estimate D2E/DX2                !
 ! A57   A(25,30,31)           110.8705         estimate D2E/DX2                !
 ! A58   A(25,30,32)           111.1465         estimate D2E/DX2                !
 ! A59   A(25,30,33)           107.7863         estimate D2E/DX2                !
 ! A60   A(31,30,32)           111.4353         estimate D2E/DX2                !
 ! A61   A(31,30,33)           107.7963         estimate D2E/DX2                !
 ! A62   A(32,30,33)           107.6207         estimate D2E/DX2                !
 ! A63   A(27,31,30)           116.6029         estimate D2E/DX2                !
 ! D1    D(6,1,2,3)             -0.3066         estimate D2E/DX2                !
 ! D2    D(6,1,2,10)           179.6124         estimate D2E/DX2                !
 ! D3    D(7,1,2,3)           -179.9968         estimate D2E/DX2                !
 ! D4    D(7,1,2,10)            -0.0778         estimate D2E/DX2                !
 ! D5    D(2,1,6,5)              0.4321         estimate D2E/DX2                !
 ! D6    D(2,1,6,8)           -179.5227         estimate D2E/DX2                !
 ! D7    D(7,1,6,5)           -179.8774         estimate D2E/DX2                !
 ! D8    D(7,1,6,8)              0.1678         estimate D2E/DX2                !
 ! D9    D(1,2,3,4)             -0.422          estimate D2E/DX2                !
 ! D10   D(1,2,3,9)            179.5961         estimate D2E/DX2                !
 ! D11   D(10,2,3,4)           179.6592         estimate D2E/DX2                !
 ! D12   D(10,2,3,9)            -0.3227         estimate D2E/DX2                !
 ! D13   D(2,3,4,5)              0.9932         estimate D2E/DX2                !
 ! D14   D(2,3,4,12)          -178.4715         estimate D2E/DX2                !
 ! D15   D(9,3,4,5)           -179.0257         estimate D2E/DX2                !
 ! D16   D(9,3,4,12)             1.5097         estimate D2E/DX2                !
 ! D17   D(3,4,5,6)             -0.8694         estimate D2E/DX2                !
 ! D18   D(3,4,5,11)           179.1385         estimate D2E/DX2                !
 ! D19   D(12,4,5,6)           178.6212         estimate D2E/DX2                !
 ! D20   D(12,4,5,11)           -1.3708         estimate D2E/DX2                !
 ! D21   D(3,4,12,13)           19.9425         estimate D2E/DX2                !
 ! D22   D(3,4,12,21)         -101.6545         estimate D2E/DX2                !
 ! D23   D(3,4,12,35)          141.3888         estimate D2E/DX2                !
 ! D24   D(5,4,12,13)         -159.5194         estimate D2E/DX2                !
 ! D25   D(5,4,12,21)           78.8836         estimate D2E/DX2                !
 ! D26   D(5,4,12,35)          -38.0731         estimate D2E/DX2                !
 ! D27   D(4,5,6,1)              0.166          estimate D2E/DX2                !
 ! D28   D(4,5,6,8)           -179.8792         estimate D2E/DX2                !
 ! D29   D(11,5,6,1)          -179.8419         estimate D2E/DX2                !
 ! D30   D(11,5,6,8)             0.113          estimate D2E/DX2                !
 ! D31   D(4,12,13,14)        -178.0311         estimate D2E/DX2                !
 ! D32   D(4,12,13,15)          62.9236         estimate D2E/DX2                !
 ! D33   D(4,12,13,16)         -57.6434         estimate D2E/DX2                !
 ! D34   D(21,12,13,14)        -52.1432         estimate D2E/DX2                !
 ! D35   D(21,12,13,15)       -171.1886         estimate D2E/DX2                !
 ! D36   D(21,12,13,16)         68.2444         estimate D2E/DX2                !
 ! D37   D(35,12,13,14)         59.7539         estimate D2E/DX2                !
 ! D38   D(35,12,13,15)        -59.2914         estimate D2E/DX2                !
 ! D39   D(35,12,13,16)       -179.8584         estimate D2E/DX2                !
 ! D40   D(4,12,21,19)         165.2213         estimate D2E/DX2                !
 ! D41   D(13,12,21,19)         36.2559         estimate D2E/DX2                !
 ! D42   D(35,12,21,19)        -76.3558         estimate D2E/DX2                !
 ! D43   D(12,13,14,19)         40.8949         estimate D2E/DX2                !
 ! D44   D(15,13,14,19)        161.566          estimate D2E/DX2                !
 ! D45   D(16,13,14,19)        -82.4908         estimate D2E/DX2                !
 ! D46   D(13,14,19,17)       -135.3447         estimate D2E/DX2                !
 ! D47   D(13,14,19,21)        -11.406          estimate D2E/DX2                !
 ! D48   D(13,14,19,22)         96.8509         estimate D2E/DX2                !
 ! D49   D(14,19,21,12)        -15.3798         estimate D2E/DX2                !
 ! D50   D(17,19,21,12)        102.6527         estimate D2E/DX2                !
 ! D51   D(22,19,21,12)       -122.9296         estimate D2E/DX2                !
 ! D52   D(14,19,22,20)         14.3917         estimate D2E/DX2                !
 ! D53   D(14,19,22,26)       -168.8129         estimate D2E/DX2                !
 ! D54   D(17,19,22,20)       -107.8697         estimate D2E/DX2                !
 ! D55   D(17,19,22,26)         68.9258         estimate D2E/DX2                !
 ! D56   D(21,19,22,20)        118.0611         estimate D2E/DX2                !
 ! D57   D(21,19,22,26)        -65.1434         estimate D2E/DX2                !
 ! D58   D(18,20,22,19)         -2.1826         estimate D2E/DX2                !
 ! D59   D(18,20,22,26)       -179.0262         estimate D2E/DX2                !
 ! D60   D(24,20,22,19)        176.5133         estimate D2E/DX2                !
 ! D61   D(24,20,22,26)         -0.3304         estimate D2E/DX2                !
 ! D62   D(18,20,24,23)         -1.361          estimate D2E/DX2                !
 ! D63   D(18,20,24,27)        178.1566         estimate D2E/DX2                !
 ! D64   D(22,20,24,23)        179.9235         estimate D2E/DX2                !
 ! D65   D(22,20,24,27)         -0.5589         estimate D2E/DX2                !
 ! D66   D(19,22,26,28)          2.1023         estimate D2E/DX2                !
 ! D67   D(19,22,26,29)       -176.5644         estimate D2E/DX2                !
 ! D68   D(20,22,26,28)        179.0133         estimate D2E/DX2                !
 ! D69   D(20,22,26,29)          0.3466         estimate D2E/DX2                !
 ! D70   D(20,24,27,29)          1.4218         estimate D2E/DX2                !
 ! D71   D(20,24,27,31)       -178.7639         estimate D2E/DX2                !
 ! D72   D(23,24,27,29)       -179.0776         estimate D2E/DX2                !
 ! D73   D(23,24,27,31)          0.7367         estimate D2E/DX2                !
 ! D74   D(22,26,29,27)          0.527          estimate D2E/DX2                !
 ! D75   D(22,26,29,34)        179.1649         estimate D2E/DX2                !
 ! D76   D(28,26,29,27)       -178.1581         estimate D2E/DX2                !
 ! D77   D(28,26,29,34)          0.4798         estimate D2E/DX2                !
 ! D78   D(24,27,29,26)         -1.4109         estimate D2E/DX2                !
 ! D79   D(24,27,29,34)        179.9499         estimate D2E/DX2                !
 ! D80   D(31,27,29,26)        178.7548         estimate D2E/DX2                !
 ! D81   D(31,27,29,34)          0.1156         estimate D2E/DX2                !
 ! D82   D(24,27,31,30)         13.4924         estimate D2E/DX2                !
 ! D83   D(29,27,31,30)       -166.6862         estimate D2E/DX2                !
 ! D84   D(25,30,31,27)        -70.371          estimate D2E/DX2                !
 ! D85   D(32,30,31,27)         53.9942         estimate D2E/DX2                !
 ! D86   D(33,30,31,27)        171.8714         estimate D2E/DX2                !
 --------------------------------------------------------------------------------
 Trust Radius=3.00D-01 FncErr=1.00D-07 GrdErr=1.00D-06 EigMax=2.50D+02 EigMin=1.00D-04
 Number of steps in this run=    196 maximum allowed number of steps=    210.
 GradGradGradGradGradGradGradGradGradGradGradGradGradGradGradGradGradGrad

                          Input orientation:                          
 ---------------------------------------------------------------------
 Center     Atomic      Atomic             Coordinates (Angstroms)
 Number     Number       Type             X           Y           Z
 ---------------------------------------------------------------------
      1          6           0        0.000000    0.000000    0.000000
      2          6           0        0.000000    0.000000    1.392540
      3          6           0        1.207017    0.000000    2.099016
      4          6           0        2.434392   -0.008880    1.420347
      5          6           0        2.412727    0.003787    0.012881
      6          6           0        1.207186    0.006460   -0.690862
      7          1           0       -0.939724    0.000053   -0.546022
      8          1           0        1.212963    0.014326   -1.777898
      9          1           0        1.156918    0.006779    3.184119
     10          1           0       -0.944354    0.001335    1.931604
     11          1           0        3.345352    0.011607   -0.549843
     12          6           0        3.770458   -0.043026    2.122004
     13          6           0        3.802639   -0.534046    3.584153
     14          8           0        5.140478   -0.456896    4.104274
     15          1           0        3.479253   -1.578488    3.645125
     16          1           0        3.154284    0.054176    4.243383
     17         16           0        7.744786    0.464264    3.085707
     18          1           0        5.009602    0.528234    6.430987
     19         15           0        5.931616    0.909724    3.649536
     20          6           0        5.273006    1.574191    6.286265
     21         16           0        4.585229    1.596957    2.178215
     22          6           0        5.719527    2.024365    5.034953
     23          1           0        4.830195    2.051565    8.323637
     24          6           0        5.182642    2.448358    7.376918
     25          1           0        4.378123    3.867022    9.726774
     26          6           0        6.067361    3.376790    4.901409
     27          6           0        5.548927    3.785796    7.236295
     28          1           0        6.433378    3.759489    3.949903
     29          6           0        5.976792    4.246991    5.990821
     30          6           0        5.387143    4.255967    9.557405
     31          8           0        5.530070    4.730835    8.224014
     32          1           0        6.146247    3.503621    9.797983
     33          1           0        5.536026    5.104405   10.232377
     34          1           0        6.263506    5.289743    5.873195
     35          1           0        4.444964   -0.694775    1.551502
 ---------------------------------------------------------------------
                    Distance matrix (angstroms):
                    1          2          3          4          5
     1  C    0.000000
     2  C    1.392540   0.000000
     3  C    2.421313   1.398570   0.000000
     4  C    2.818462   2.434567   1.402540   0.000000
     5  C    2.412765   2.779339   2.409504   1.407690   0.000000
     6  C    1.390910   2.407884   2.789885   2.442022   1.395919
     7  H    1.086840   2.154322   3.406570   3.905297   3.398723
     8  H    2.152302   3.394578   3.876945   3.423624   2.155559
     9  H    3.387789   2.132665   1.086280   2.177860   3.410838
    10  H    2.150093   1.087380   2.157875   3.417222   3.866716
    11  H    3.390257   3.868381   3.404271   2.170695   1.089270
    12  C    4.326789   3.840615   2.563905   1.509490   2.508789
    13  C    5.252754   4.421361   3.037777   2.613418   3.869768
    14  O    6.593810   5.829817   4.438686   3.837588   4.938861
    15  H    5.280508   4.435196   3.169406   2.916340   4.102958
    16  H    5.287603   4.252029   2.897084   2.914061   4.295299
    17  S    8.349780   7.941288   6.628086   5.585478   6.171316
    18  H    8.169010   7.124682   5.788321   5.659214   6.943406
    19  P    7.023587   6.411372   5.055051   4.247787   5.140871
    20  C    8.354628   7.364185   6.045114   5.851581   7.071259
    21  S    5.321580   4.918524   3.737493   2.789117   3.456389
    22  C    7.884275   7.076596   5.751567   5.290706   6.343411
    23  H    9.839849   8.693665   7.488808   7.592148   8.894167
    24  C    9.342010   8.286556   7.046723   7.005114   8.238773
    25  H   11.346011  10.177489   9.120991   9.370028  10.637062
    26  C    8.499376   7.779958   6.548211   6.064571   6.973607
    27  C    9.873540   8.903500   7.718553   7.610857   8.735962
    28  H    8.433495   7.877957   6.698835   6.049062   6.765432
    29  C    9.468311   8.654661   7.478892   7.179851   8.151264
    30  C   11.767691  10.667688   9.550616   9.649837  10.863982
    31  O   10.981661   9.981559   8.864829   8.850876   9.974242
    32  H   12.085206  10.986501   9.795175   9.813273  11.042474
    33  H   12.704491  11.612289  10.533131  10.649774  11.841005
    34  H   10.085004   9.342867   8.233705   7.909828   8.781407
    35  H    4.758947   4.501743   3.356603   2.128392   2.642978
                    6          7          8          9         10
     6  C    0.000000
     7  H    2.151800   0.000000
     8  H    1.087080   2.480279   0.000000
     9  H    3.875306   4.279007   4.962339   0.000000
    10  H    3.392120   2.477630   4.291222   2.446255   0.000000
    11  H    2.142817   4.285094   2.460734   4.328018   4.955730
    12  C    3.805920   5.413505   4.664044   2.821553   4.718863
    13  C    5.030335   6.311388   5.979860   2.729901   5.054848
    14  O    6.219229   7.668305   7.088538   4.114661   6.477318
    15  H    5.145398   6.291650   6.089524   2.849358   5.000029
    16  H    5.304737   6.300971   6.326622   2.261362   4.705948
    17  S    7.563879   9.424736   8.156090   6.604467   8.777665
    18  H    8.090200   9.184340   9.058938   5.065298   7.481421
    19  P    6.478825   8.102192   7.247376   4.881564   7.145308
    20  C    8.226115   9.367821   9.162306   5.387233   7.751937
    21  S    4.708764   6.363700   5.433942   3.910732   5.760478
    22  C    7.564265   8.921364   8.412153   5.321056   7.624351
    23  H    9.928234  10.778289  10.921342   6.639937   8.854770
    24  C    9.319666  10.307790  10.271004   6.304548   8.554499
    25  H   11.553611  12.196856  12.538700   8.251302  10.199852
    26  C    8.139651   9.496110   8.915408   6.198267   8.329321
    27  C    9.796627  10.816603  10.690194   7.070420   9.199162
    28  H    7.933159   9.418563   8.607362   6.519991   8.522217
    29  C    9.239920  10.421372  10.048011   7.006294   9.077725
    30  C   11.855687  12.657854  12.802515   8.750381  10.786222
    31  O   10.976432  11.880743  11.871020   8.175678  10.192191
    32  H   12.109514  13.018618  13.058082   8.992470  11.154486
    33  H   12.808007  13.570691  13.742070   9.738600  11.702115
    34  H    9.826815  11.003349  10.577204   7.824199   9.770192
    35  H    4.000391   5.820418   4.693992   3.737495   5.447366
                   11         12         13         14         15
    11  H    0.000000
    12  C    2.706006   0.000000
    13  C    4.194851   1.542730   0.000000
    14  O    5.010267   2.444921   1.437460   0.000000
    15  H    4.488217   2.182279   1.095060   2.056321   0.000000
    16  H    4.797222   2.211191   1.095880   2.055605   1.768929
    17  S    5.725132   4.120843   4.097022   2.944220   4.762411
    18  H    7.195041   4.519861   3.269504   2.530060   3.813302
    19  P    5.012999   2.812773   2.573187   1.643270   3.493609
    20  C    7.272544   4.713185   3.729350   2.983951   4.486932
    21  S    3.390122   1.832090   2.670258   2.869898   3.668577
    22  C    6.393578   4.069182   3.510662   2.712585   4.464415
    23  H    9.225228   6.631033   5.495813   4.918503   6.073780
    24  C    8.493935   5.984595   5.018387   4.376355   5.748331
    25  H   11.024504   8.572646   7.578415   7.133720   8.212674
    26  C    6.960599   4.969507   4.707310   4.023890   5.729864
    27  C    8.928840   6.631651   5.920194   5.289312   6.779056
    28  H    6.620441   4.989136   5.048663   4.412859   6.108498
    29  C    8.224551   6.183842   5.777309   5.136637   6.758417
    30  C   11.150783   8.739576   7.818862   7.211696   8.522673
    31  O   10.199249   7.944842   7.227123   6.636008   8.060995
    32  H   11.274604   8.783151   7.772190   7.008252   8.414177
    33  H   12.124022   9.766854   8.887949   8.284817   9.606418
    34  H    8.810775   6.980340   6.723995   6.116710   7.738797
    35  H    2.474626   1.097820   2.137776   2.656496   2.469171
                   16         17         18         19         20
    16  H    0.000000
    17  S    4.751956   0.000000
    18  H    2.907326   4.321599   0.000000
    19  P    2.966174   1.950364   2.955015   0.000000
    20  C    3.312521   4.193471   1.088280   2.797789   0.000000
    21  S    2.948337   3.476972   4.405488   2.109463   4.165289
    22  C    3.329970   3.214832   2.165944   1.790750   1.402790
    23  H    4.842180   6.200828   2.436154   4.936005   2.138890
    24  C    4.434567   5.377331   2.147465   4.101430   1.400663
    25  H    6.789930   8.186388   4.733760   6.934823   4.230247
    26  C    4.467525   3.820122   3.401872   2.769843   2.407943
    27  C    5.349469   5.751674   3.398692   4.613359   2.422785
    28  H    4.956605   3.650361   4.315545   2.909149   3.403024
    29  C    5.347877   5.086700   3.867604   4.076887   2.779651
    30  C    7.132989   7.862465   4.879859   6.811513   4.231466
    31  O    6.584901   7.036391   4.598662   5.973942   3.712864
    32  H    7.190556   7.539739   4.634820   6.676659   4.100904
    33  H    8.188135   8.802524   5.972356   7.815730   5.301263
    34  H    6.303548   5.766241   4.955339   4.923351   3.867434
    35  H    3.077825   3.819159   5.062009   3.030890   5.315246
                   21         22         23         24         25
    21  S    0.000000
    22  C    3.103266   0.000000
    23  H    6.167080   3.406918   0.000000
    24  C    5.301725   2.439839   1.085330   0.000000
    25  H    7.885228   5.216123   2.338600   2.860364   0.000000
    26  C    3.574956   1.402810   3.872782   2.787984   5.135951
    27  C    5.594989   2.824474   2.169434   1.393800   2.753155
    28  H    3.351280   2.167388   4.961526   3.876575   6.132526
    29  C    4.847174   2.433092   3.402441   2.405622   4.081355
    30  C    7.884531   5.054018   2.586844   2.839682   1.094570
    31  O    6.874998   4.187002   2.770964   2.459264   2.081211
    32  H    8.008309   5.005672   2.452378   2.811347   1.806486
    33  H    8.836048   6.044298   3.668968   3.915752   1.768471
    34  H    5.486908   3.414859   4.306373   3.391595   4.519831
    35  H    2.380016   4.599202   7.317964   6.660249   9.362133
                   26         27         28         29         30
    26  C    0.000000
    27  C    2.426469   0.000000
    28  H    1.088940   3.403427   0.000000
    29  C    1.397237   1.395340   2.147435   0.000000
    30  C    4.786851   2.373770   5.725834   3.615008   0.000000
    31  O    3.627923   1.367130   4.475210   2.328265   1.422624
    32  H    4.898852   2.645499   5.860713   3.882756   1.095510
    33  H    5.629049   3.273440   6.487181   4.349739   1.094350
    34  H    2.154584   2.151865   2.463653   1.087830   3.925571
    35  H    5.516492   7.321961   5.435677   6.817265   9.460022
                   31         32         33         34         35
    31  O    0.000000
    32  H    2.088806   0.000000
    33  H    2.042820   1.767364   0.000000
    34  H    2.525205   4.313693   4.423353   0.000000
    35  H    8.668167   9.408791  10.496595   7.602538   0.000000
 Stoichiometry    C15H15O2PS2
 Framework group  C1[X(C15H15O2PS2)]
 Deg. of freedom    99
 Full point group                 C1      NOp   1
 Largest Abelian subgroup         C1      NOp   1
 Largest concise Abelian subgroup C1      NOp   1
                         Standard orientation:                         
 ---------------------------------------------------------------------
 Center     Atomic      Atomic             Coordinates (Angstroms)
 Number     Number       Type             X           Y           Z
 ---------------------------------------------------------------------
      1          6           0        5.666566   -2.018207   -0.383566
      2          6           0        4.590397   -2.540388    0.329423
      3          6           0        3.461729   -1.753943    0.581637
      4          6           0        3.397346   -0.427539    0.130387
      5          6           0        4.490291    0.077349   -0.599099
      6          6           0        5.615033   -0.709683   -0.852330
      7          1           0        6.542174   -2.632014   -0.577921
      8          1           0        6.449077   -0.299525   -1.416143
      9          1           0        2.644544   -2.206630    1.135971
     10          1           0        4.629146   -3.565525    0.689963
     11          1           0        4.471718    1.098237   -0.978509
     12          6           0        2.224171    0.483954    0.397592
     13          6           0        1.280951    0.119496    1.562720
     14          8           0        0.201364    1.065295    1.641751
     15          1           0        1.820216    0.146338    2.515416
     16          1           0        0.842166   -0.879085    1.456626
     17         16           0       -0.648204    3.423433    0.097130
     18          1           0       -1.939396   -0.233755    2.003440
     19         15           0       -0.392129    1.491319    0.169811
     20          6           0       -2.385606   -0.281919    1.012012
     21         16           0        1.111789    0.652231   -1.048383
     22          6           0       -1.819592    0.433408   -0.053707
     23          1           0       -3.942996   -1.583074    1.687571
     24          6           0       -3.544970   -1.046970    0.831937
     25          1           0       -5.557008   -3.079025    0.896277
     26          6           0       -2.441451    0.357357   -1.308849
     27          6           0       -4.164091   -1.099541   -0.415702
     28          1           0       -2.040470    0.911548   -2.156126
     29          6           0       -3.598124   -0.406150   -1.486153
     30          6           0       -6.073458   -2.260022    0.385789
     31          8           0       -5.307625   -1.786195   -0.715504
     32          1           0       -6.315907   -1.450313    1.082734
     33          1           0       -7.016480   -2.652641   -0.006845
     34          1           0       -4.075206   -0.443153   -2.463086
     35          1           0        2.607932    1.492200    0.601006
 ---------------------------------------------------------------------
 Rotational constants (GHZ):           0.4630692           0.1324527           0.1143705
 Standard basis: 6-31+G(d,p) (6D, 7F)
 There are   467 symmetry adapted cartesian basis functions of A   symmetry.
 There are   467 symmetry adapted basis functions of A   symmetry.
   467 basis functions,   817 primitive gaussians,   467 cartesian basis functions
    84 alpha electrons       84 beta electrons
       nuclear repulsion energy      1894.0017189668 Hartrees.
 NAtoms=   35 NActive=   35 NUniq=   35 SFac= 1.00D+00 NAtFMM=   60 NAOKFM=F Big=F
 Integral buffers will be    131072 words long.
 Raffenetti 2 integral format.
 Two-electron integral symmetry is turned on.
 One-electron integrals computed using PRISM.
 NBasis=   467 RedAO= T EigKep=  1.39D-06  NBF=   467
 NBsUse=   467 1.00D-06 EigRej= -1.00D+00 NBFU=   467
 ExpMin= 3.48D-02 ExpMax= 2.19D+04 ExpMxC= 3.30D+03 IAcc=3 IRadAn=         5 AccDes= 0.00D+00
 Harris functional with IExCor=  402 and IRadAn=       5 diagonalized for initial guess.
 HarFok:  IExCor=  402 AccDes= 0.00D+00 IRadAn=         5 IDoV= 1 UseB2=F ITyADJ=14
 ICtDFT=  3500011 ScaDFX=  1.000000  1.000000  1.000000  1.000000
 FoFCou: FMM=F IPFlag=           0 FMFlag=      100000 FMFlg1=           0
         NFxFlg=           0 DoJE=T BraDBF=F KetDBF=T FulRan=T
         wScrn=  0.000000 ICntrl=       500 IOpCl=  0 I1Cent=   200000004 NGrid=           0
         NMat0=    1 NMatS0=      1 NMatT0=    0 NMatD0=    1 NMtDS0=    0 NMtDT0=    0
 Petite list used in FoFCou.
 Requested convergence on RMS density matrix=1.00D-08 within 128 cycles.
 Requested convergence on MAX density matrix=1.00D-06.
 Requested convergence on             energy=1.00D-06.
 No special actions if energy rises.
 SCF Done:  E(RB3LYP) =  -1868.88570000     A.U. after   16 cycles
            NFock= 16  Conv=0.46D-08     -V/T= 2.0058

 **********************************************************************

            Population analysis using the SCF Density.

 **********************************************************************

 Orbital symmetries:
       Occupied  (A) (A) (A) (A) (A) (A) (A) (A) (A) (A) (A) (A)
                 (A) (A) (A) (A) (A) (A) (A) (A) (A) (A) (A) (A)
                 (A) (A) (A) (A) (A) (A) (A) (A) (A) (A) (A) (A)
                 (A) (A) (A) (A) (A) (A) (A) (A) (A) (A) (A) (A)
                 (A) (A) (A) (A) (A) (A) (A) (A) (A) (A) (A) (A)
                 (A) (A) (A) (A) (A) (A) (A) (A) (A) (A) (A) (A)
                 (A) (A) (A) (A) (A) (A) (A) (A) (A) (A) (A) (A)
       Virtual   (A) (A) (A) (A) (A) (A) (A) (A) (A) (A) (A) (A)
                 (A) (A) (A) (A) (A) (A) (A) (A) (A) (A) (A) (A)
                 (A) (A) (A) (A) (A) (A) (A) (A) (A) (A) (A) (A)
                 (A) (A) (A) (A) (A) (A) (A) (A) (A) (A) (A) (A)
                 (A) (A) (A) (A) (A) (A) (A) (A) (A) (A) (A) (A)
                 (A) (A) (A) (A) (A) (A) (A) (A) (A) (A) (A) (A)
                 (A) (A) (A) (A) (A) (A) (A) (A) (A) (A) (A) (A)
                 (A) (A) (A) (A) (A) (A) (A) (A) (A) (A) (A) (A)
                 (A) (A) (A) (A) (A) (A) (A) (A) (A) (A) (A) (A)
                 (A) (A) (A) (A) (A) (A) (A) (A) (A) (A) (A) (A)
                 (A) (A) (A) (A) (A) (A) (A) (A) (A) (A) (A) (A)
                 (A) (A) (A) (A) (A) (A) (A) (A) (A) (A) (A) (A)
                 (A) (A) (A) (A) (A) (A) (A) (A) (A) (A) (A) (A)
                 (A) (A) (A) (A) (A) (A) (A) (A) (A) (A) (A) (A)
                 (A) (A) (A) (A) (A) (A) (A) (A) (A) (A) (A) (A)
                 (A) (A) (A) (A) (A) (A) (A) (A) (A) (A) (A) (A)
                 (A) (A) (A) (A) (A) (A) (A) (A) (A) (A) (A) (A)
                 (A) (A) (A) (A) (A) (A) (A) (A) (A) (A) (A) (A)
                 (A) (A) (A) (A) (A) (A) (A) (A) (A) (A) (A) (A)
                 (A) (A) (A) (A) (A) (A) (A) (A) (A) (A) (A) (A)
                 (A) (A) (A) (A) (A) (A) (A) (A) (A) (A) (A) (A)
                 (A) (A) (A) (A) (A) (A) (A) (A) (A) (A) (A) (A)
                 (A) (A) (A) (A) (A) (A) (A) (A) (A) (A) (A) (A)
                 (A) (A) (A) (A) (A) (A) (A) (A) (A) (A) (A) (A)
                 (A) (A) (A) (A) (A) (A) (A) (A) (A) (A) (A) (A)
                 (A) (A) (A) (A) (A) (A) (A) (A) (A) (A) (A) (A)
                 (A) (A) (A) (A) (A) (A) (A) (A) (A) (A) (A) (A)
                 (A) (A) (A) (A) (A) (A) (A) (A) (A) (A) (A) (A)
                 (A) (A) (A) (A) (A) (A) (A) (A) (A) (A) (A) (A)
                 (A) (A) (A) (A) (A) (A) (A) (A) (A) (A) (A) (A)
                 (A) (A) (A) (A) (A) (A) (A) (A) (A) (A) (A) (A)
                 (A) (A) (A) (A) (A) (A) (A) (A) (A) (A) (A)
 The electronic state is 1-A.
 Alpha  occ. eigenvalues --  -88.89165 -88.83236 -77.20665 -19.20377 -19.19690
 Alpha  occ. eigenvalues --  -10.27317 -10.27197 -10.25603 -10.25547 -10.22893
 Alpha  occ. eigenvalues --  -10.22047 -10.21819 -10.21540 -10.21477 -10.21247
 Alpha  occ. eigenvalues --  -10.21230 -10.21156 -10.21064 -10.20959 -10.20712
 Alpha  occ. eigenvalues --   -7.95471  -7.89522  -6.66192  -5.91914  -5.91640
 Alpha  occ. eigenvalues --   -5.90933  -5.86073  -5.85332  -5.85245  -4.82643
 Alpha  occ. eigenvalues --   -4.82410  -4.82204  -1.08651  -1.07289  -0.88316
 Alpha  occ. eigenvalues --   -0.87682  -0.83391  -0.79980  -0.77251  -0.76601
 Alpha  occ. eigenvalues --   -0.76205  -0.75366  -0.71385  -0.69144  -0.65585
 Alpha  occ. eigenvalues --   -0.63354  -0.62599  -0.61850  -0.59536  -0.57181
 Alpha  occ. eigenvalues --   -0.55065  -0.53853  -0.51523  -0.50428  -0.49507
 Alpha  occ. eigenvalues --   -0.48984  -0.48752  -0.47564  -0.46928  -0.46466
 Alpha  occ. eigenvalues --   -0.44459  -0.43853  -0.43611  -0.43109  -0.42010
 Alpha  occ. eigenvalues --   -0.40831  -0.39736  -0.39033  -0.38311  -0.37585
 Alpha  occ. eigenvalues --   -0.36806  -0.36433  -0.35864  -0.35232  -0.34825
 Alpha  occ. eigenvalues --   -0.33355  -0.31555  -0.27546  -0.27296  -0.27012
 Alpha  occ. eigenvalues --   -0.26469  -0.24934  -0.23477  -0.22295
 Alpha virt. eigenvalues --   -0.04457  -0.03944  -0.03213  -0.02950  -0.01407
 Alpha virt. eigenvalues --   -0.00599  -0.00334  -0.00187   0.00868   0.01177
 Alpha virt. eigenvalues --    0.01638   0.01889   0.02688   0.03084   0.03437
 Alpha virt. eigenvalues --    0.03462   0.03884   0.04112   0.04744   0.05188
 Alpha virt. eigenvalues --    0.06005   0.06174   0.06515   0.06684   0.07262
 Alpha virt. eigenvalues --    0.07371   0.07796   0.08113   0.08656   0.09226
 Alpha virt. eigenvalues --    0.09300   0.09510   0.09838   0.10629   0.10941
 Alpha virt. eigenvalues --    0.11352   0.11608   0.11936   0.12109   0.12812
 Alpha virt. eigenvalues --    0.12890   0.13242   0.13350   0.13583   0.13917
 Alpha virt. eigenvalues --    0.14240   0.14826   0.15020   0.15134   0.15391
 Alpha virt. eigenvalues --    0.15795   0.15954   0.16196   0.16512   0.16955
 Alpha virt. eigenvalues --    0.17385   0.17654   0.18216   0.18424   0.18797
 Alpha virt. eigenvalues --    0.19005   0.19138   0.19338   0.19722   0.19819
 Alpha virt. eigenvalues --    0.20485   0.20627   0.20744   0.21175   0.21335
 Alpha virt. eigenvalues --    0.21752   0.22092   0.22569   0.22681   0.23085
 Alpha virt. eigenvalues --    0.23180   0.23625   0.23883   0.24060   0.24663
 Alpha virt. eigenvalues --    0.25099   0.25363   0.25609   0.25799   0.25995
 Alpha virt. eigenvalues --    0.26541   0.26599   0.27377   0.27613   0.27994
 Alpha virt. eigenvalues --    0.28175   0.28877   0.29211   0.29440   0.29787
 Alpha virt. eigenvalues --    0.30100   0.30569   0.30853   0.31543   0.31746
 Alpha virt. eigenvalues --    0.32124   0.32629   0.33176   0.33379   0.34154
 Alpha virt. eigenvalues --    0.34403   0.35393   0.35782   0.36437   0.37057
 Alpha virt. eigenvalues --    0.37179   0.37439   0.38914   0.39173   0.41345
 Alpha virt. eigenvalues --    0.42048   0.43035   0.43654   0.44060   0.46260
 Alpha virt. eigenvalues --    0.47381   0.49290   0.52469   0.52941   0.54495
 Alpha virt. eigenvalues --    0.55987   0.56249   0.56905   0.58913   0.59751
 Alpha virt. eigenvalues --    0.60468   0.61930   0.63070   0.64209   0.65670
 Alpha virt. eigenvalues --    0.66662   0.67173   0.67336   0.67586   0.68327
 Alpha virt. eigenvalues --    0.68747   0.68801   0.69958   0.70685   0.71567
 Alpha virt. eigenvalues --    0.71990   0.72370   0.72503   0.72863   0.73164
 Alpha virt. eigenvalues --    0.73704   0.74100   0.74725   0.75349   0.76031
 Alpha virt. eigenvalues --    0.76786   0.77387   0.77873   0.78745   0.79154
 Alpha virt. eigenvalues --    0.81008   0.81294   0.82280   0.83101   0.83852
 Alpha virt. eigenvalues --    0.85535   0.86141   0.86517   0.87183   0.87424
 Alpha virt. eigenvalues --    0.87461   0.88237   0.88839   0.90022   0.90541
 Alpha virt. eigenvalues --    0.91521   0.91765   0.92156   0.93142   0.93593
 Alpha virt. eigenvalues --    0.94868   0.95559   0.96760   0.97022   0.97795
 Alpha virt. eigenvalues --    0.98607   1.00213   1.00947   1.01134   1.01589
 Alpha virt. eigenvalues --    1.02724   1.03806   1.04641   1.06407   1.07947
 Alpha virt. eigenvalues --    1.08299   1.08593   1.09571   1.10461   1.11043
 Alpha virt. eigenvalues --    1.13184   1.13567   1.14932   1.15408   1.16671
 Alpha virt. eigenvalues --    1.17363   1.17797   1.18328   1.20015   1.21495
 Alpha virt. eigenvalues --    1.22115   1.23385   1.24329   1.25901   1.26310
 Alpha virt. eigenvalues --    1.27819   1.28510   1.30300   1.30609   1.32565
 Alpha virt. eigenvalues --    1.33837   1.34268   1.36077   1.37385   1.38396
 Alpha virt. eigenvalues --    1.38889   1.39665   1.39900   1.40364   1.40568
 Alpha virt. eigenvalues --    1.41156   1.43191   1.43889   1.44356   1.45202
 Alpha virt. eigenvalues --    1.46066   1.46411   1.48671   1.51728   1.56930
 Alpha virt. eigenvalues --    1.57457   1.60539   1.64798   1.70035   1.73587
 Alpha virt. eigenvalues --    1.75811   1.78578   1.78887   1.79650   1.80772
 Alpha virt. eigenvalues --    1.82095   1.82836   1.84691   1.87277   1.88026
 Alpha virt. eigenvalues --    1.88558   1.89062   1.90026   1.90213   1.92031
 Alpha virt. eigenvalues --    1.93036   1.93836   1.94759   1.95505   1.96303
 Alpha virt. eigenvalues --    1.96550   1.97324   1.98344   1.99824   2.00190
 Alpha virt. eigenvalues --    2.00716   2.00881   2.01171   2.02375   2.05211
 Alpha virt. eigenvalues --    2.06833   2.07243   2.07731   2.08776   2.08942
 Alpha virt. eigenvalues --    2.10781   2.11319   2.12149   2.14297   2.14886
 Alpha virt. eigenvalues --    2.19231   2.21404   2.26297   2.27311   2.27673
 Alpha virt. eigenvalues --    2.27945   2.28759   2.31774   2.34809   2.36601
 Alpha virt. eigenvalues --    2.37226   2.37893   2.38513   2.39641   2.39792
 Alpha virt. eigenvalues --    2.44646   2.45566   2.46200   2.47714   2.48143
 Alpha virt. eigenvalues --    2.48984   2.49371   2.51103   2.52628   2.53838
 Alpha virt. eigenvalues --    2.54647   2.55749   2.56265   2.56753   2.57339
 Alpha virt. eigenvalues --    2.57477   2.58146   2.58966   2.61530   2.63111
 Alpha virt. eigenvalues --    2.63321   2.64451   2.68916   2.69466   2.70650
 Alpha virt. eigenvalues --    2.71959   2.72249   2.73848   2.75154   2.75783
 Alpha virt. eigenvalues --    2.77614   2.79877   2.80787   2.81729   2.83139
 Alpha virt. eigenvalues --    2.83919   2.85602   2.91798   2.95814   2.97499
 Alpha virt. eigenvalues --    3.02986   3.04943   3.06040   3.10575   3.18020
 Alpha virt. eigenvalues --    3.18634   3.22091   3.25485   3.26710   3.27489
 Alpha virt. eigenvalues --    3.30059   3.32147   3.33777   3.36324   3.40584
 Alpha virt. eigenvalues --    3.41070   3.44231   3.46433   3.48280   3.50696
 Alpha virt. eigenvalues --    3.51707   3.53009   3.79530   3.87794   3.97245
 Alpha virt. eigenvalues --    4.00066   4.28063   4.28706   4.29049   4.31165
 Alpha virt. eigenvalues --    4.33091   4.36841   4.41087   4.43316   4.44144
 Alpha virt. eigenvalues --    4.48870   4.49237   4.52537   4.56542   4.59534
 Alpha virt. eigenvalues --    4.67004   4.85032   4.85322
          Condensed to atoms (all electrons):
               1          2          3          4          5          6
     1  C    5.551494   0.103685   0.233605  -0.766387   0.342825   0.357664
     2  C    0.103685  10.395189  -3.749567  -1.821647  -0.703551   0.591197
     3  C    0.233605  -3.749567  21.714650  -1.205728 -11.105987   1.492153
     4  C   -0.766387  -1.821647  -1.205728  24.954190  -5.582609   1.393030
     5  C    0.342825  -0.703551 -11.105987  -5.582609  25.872511  -6.406530
     6  C    0.357664   0.591197   1.492153   1.393030  -6.406530   9.938910
     7  H    0.242488   0.033514  -0.001761   0.009739  -0.002586   0.027654
     8  H    0.007134   0.000833   0.006899   0.023859   0.014311   0.253852
     9  H    0.005025   0.000997   0.232704  -0.059254   0.027504   0.000798
    10  H    0.023888   0.236289   0.047505   0.003137   0.001688  -0.003057
    11  H    0.000964  -0.010270   0.073120   0.005761   0.222519  -0.071876
    12  C   -0.117817   1.763701  -1.070671 -13.935318   2.854471  -1.003771
    13  C    0.088139  -0.583173  -0.123932   2.398261   0.189245  -0.567851
    14  O    0.000250   0.035550   0.073182  -0.282051  -0.002112  -0.006394
    15  H    0.004032   0.009290   0.053152   0.138114  -0.045761  -0.009507
    16  H   -0.001272   0.023680   0.053420  -0.119557  -0.002659   0.006543
    17  S    0.001033  -0.003079  -0.031834   0.042982   0.046137  -0.002108
    18  H    0.000016  -0.000446  -0.003058   0.010281  -0.000112  -0.000046
    19  P    0.030700  -0.339892   0.081370   0.259596  -0.115775  -0.021864
    20  C    0.005777  -0.099999  -0.204047   0.103432   0.118732  -0.002383
    21  S    0.012590   0.043142  -0.286427   0.864276   0.234071  -0.053761
    22  C   -0.004763   0.138583   0.109185  -0.466343  -0.017891  -0.018358
    23  H   -0.000000   0.000023   0.000141  -0.000126  -0.000009   0.000000
    24  C    0.000631  -0.046697  -0.036728   0.205837  -0.000297   0.000818
    25  H   -0.000000   0.000001   0.000004  -0.000000  -0.000000   0.000000
    26  C   -0.007806   0.071837   0.075504  -0.024880  -0.044807   0.017387
    27  C   -0.000406  -0.003793  -0.029516   0.047686   0.009703   0.000430
    28  H   -0.000008   0.000039  -0.000139   0.000126   0.000300   0.000051
    29  C    0.000660   0.006756   0.065819  -0.073734  -0.031141  -0.000351
    30  C   -0.000002  -0.000070  -0.000306   0.000776   0.000055   0.000001
    31  O    0.000000  -0.000024  -0.000063   0.000030   0.000006  -0.000000
    32  H    0.000000  -0.000000  -0.000001  -0.000000   0.000000  -0.000000
    33  H    0.000000  -0.000000   0.000000  -0.000000  -0.000000  -0.000000
    34  H    0.000000  -0.000001  -0.000005   0.000060  -0.000005  -0.000001
    35  H    0.005672  -0.003517  -0.088204  -0.208441   0.181600   0.012929
               7          8          9         10         11         12
     1  C    0.242488   0.007134   0.005025   0.023888   0.000964  -0.117817
     2  C    0.033514   0.000833   0.000997   0.236289  -0.010270   1.763701
     3  C   -0.001761   0.006899   0.232704   0.047505   0.073120  -1.070671
     4  C    0.009739   0.023859  -0.059254   0.003137   0.005761 -13.935318
     5  C   -0.002586   0.014311   0.027504   0.001688   0.222519   2.854471
     6  C    0.027654   0.253852   0.000798  -0.003057  -0.071876  -1.003771
     7  H    0.574448  -0.005753  -0.000171  -0.005780  -0.000166   0.000077
     8  H   -0.005753   0.569692   0.000016  -0.000174  -0.005887   0.002608
     9  H   -0.000171   0.000016   0.601290  -0.006373  -0.000141   0.089492
    10  H   -0.005780  -0.000174  -0.006373   0.573250   0.000015  -0.000399
    11  H   -0.000166  -0.005887  -0.000141   0.000015   0.575240   0.066870
    12  C    0.000077   0.002608   0.089492  -0.000399   0.066870  22.925610
    13  C    0.000071   0.000711  -0.011615   0.000397  -0.000253  -4.406251
    14  O   -0.000000  -0.000000   0.001024   0.000000   0.000045   0.431616
    15  H    0.000000   0.000000  -0.000375  -0.000001   0.000010  -0.315806
    16  H    0.000000  -0.000000  -0.000221   0.000002  -0.000007   0.068891
    17  S    0.000000  -0.000003  -0.000097   0.000000  -0.000001  -0.279473
    18  H   -0.000000   0.000000   0.000000  -0.000000   0.000000  -0.025359
    19  P   -0.000109   0.000306   0.018195  -0.000089   0.002794  -0.378283
    20  C   -0.000000   0.000001   0.001407  -0.000015  -0.000241   0.120740
    21  S   -0.000171  -0.000635  -0.008039   0.000022   0.010104  -1.263882
    22  C    0.000002  -0.000009  -0.004647   0.000025  -0.000027   0.322890
    23  H    0.000000  -0.000000   0.000000  -0.000000   0.000000  -0.000090
    24  C    0.000000   0.000000   0.000467  -0.000006  -0.000029  -0.363654
    25  H   -0.000000  -0.000000  -0.000000  -0.000000   0.000000   0.000017
    26  C   -0.000000  -0.000001  -0.000208   0.000007   0.000349   0.273388
    27  C   -0.000000  -0.000000  -0.000113   0.000000   0.000002   0.000435
    28  H    0.000000   0.000000   0.000000  -0.000000  -0.000000   0.003396
    29  C    0.000000   0.000000   0.000201   0.000000   0.000027   0.021767
    30  C    0.000000   0.000000  -0.000001   0.000000  -0.000000  -0.000761
    31  O   -0.000000   0.000000   0.000000   0.000000  -0.000000  -0.000034
    32  H   -0.000000   0.000000   0.000000   0.000000  -0.000000  -0.000008
    33  H    0.000000   0.000000   0.000000   0.000000   0.000000  -0.000001
    34  H   -0.000000   0.000000  -0.000000  -0.000000   0.000000  -0.000300
    35  H   -0.000000  -0.000006  -0.000042   0.000002   0.001260   0.456589
              13         14         15         16         17         18
     1  C    0.088139   0.000250   0.004032  -0.001272   0.001033   0.000016
     2  C   -0.583173   0.035550   0.009290   0.023680  -0.003079  -0.000446
     3  C   -0.123932   0.073182   0.053152   0.053420  -0.031834  -0.003058
     4  C    2.398261  -0.282051   0.138114  -0.119557   0.042982   0.010281
     5  C    0.189245  -0.002112  -0.045761  -0.002659   0.046137  -0.000112
     6  C   -0.567851  -0.006394  -0.009507   0.006543  -0.002108  -0.000046
     7  H    0.000071  -0.000000   0.000000   0.000000   0.000000  -0.000000
     8  H    0.000711  -0.000000   0.000000  -0.000000  -0.000003   0.000000
     9  H   -0.011615   0.001024  -0.000375  -0.000221  -0.000097   0.000000
    10  H    0.000397   0.000000  -0.000001   0.000002   0.000000  -0.000000
    11  H   -0.000253   0.000045   0.000010  -0.000007  -0.000001   0.000000
    12  C   -4.406251   0.431616  -0.315806   0.068891  -0.279473  -0.025359
    13  C    8.365559  -0.156169   0.532817   0.363051   0.104134   0.017458
    14  O   -0.156169   9.213588  -0.049001  -0.051123   0.013844  -0.003145
    15  H    0.532817  -0.049001   0.564175  -0.043758   0.005294   0.000066
    16  H    0.363051  -0.051123  -0.043758   0.586971  -0.005236   0.000276
    17  S    0.104134   0.013844   0.005294  -0.005236  16.742322  -0.002491
    18  H    0.017458  -0.003145   0.000066   0.000276  -0.002491   0.565896
    19  P   -0.059916  -1.468951  -0.015256  -0.060704  -0.356876   0.056316
    20  C    0.105417  -2.178086  -0.017310   0.088958  -0.492672   0.314984
    21  S    0.309374   0.263636   0.020079  -0.007772   0.247318  -0.001249
    22  C    0.343470   1.170936   0.003099  -0.032478  -1.083121  -0.013503
    23  H    0.000210   0.000530   0.000000  -0.000004   0.000193  -0.006895
    24  C    0.165153  -0.268365   0.002661   0.019804   0.237707  -0.046524
    25  H    0.000003  -0.000000   0.000000   0.000000  -0.000021   0.000004
    26  C   -0.476835   1.387525   0.004516  -0.048456   0.580081   0.010266
    27  C   -0.007287  -0.064933  -0.000260   0.000126  -0.049115   0.000024
    28  H    0.001105   0.001498   0.000000  -0.000002   0.003037  -0.000164
    29  C   -0.044795   0.144810   0.000362   0.001417   0.421257  -0.014057
    30  C    0.001097  -0.000552   0.000001   0.000013  -0.000803   0.001154
    31  O   -0.000079  -0.000020   0.000000  -0.000001   0.000037  -0.000490
    32  H   -0.000020  -0.000000  -0.000000  -0.000000   0.000039   0.000003
    33  H    0.000001   0.000000   0.000000  -0.000000   0.000004  -0.000000
    34  H    0.000237   0.000013   0.000000  -0.000000  -0.000421   0.000012
    35  H   -0.105468   0.003190  -0.004577   0.004699   0.007949   0.000003
              19         20         21         22         23         24
     1  C    0.030700   0.005777   0.012590  -0.004763  -0.000000   0.000631
     2  C   -0.339892  -0.099999   0.043142   0.138583   0.000023  -0.046697
     3  C    0.081370  -0.204047  -0.286427   0.109185   0.000141  -0.036728
     4  C    0.259596   0.103432   0.864276  -0.466343  -0.000126   0.205837
     5  C   -0.115775   0.118732   0.234071  -0.017891  -0.000009  -0.000297
     6  C   -0.021864  -0.002383  -0.053761  -0.018358   0.000000   0.000818
     7  H   -0.000109  -0.000000  -0.000171   0.000002   0.000000   0.000000
     8  H    0.000306   0.000001  -0.000635  -0.000009  -0.000000   0.000000
     9  H    0.018195   0.001407  -0.008039  -0.004647   0.000000   0.000467
    10  H   -0.000089  -0.000015   0.000022   0.000025  -0.000000  -0.000006
    11  H    0.002794  -0.000241   0.010104  -0.000027   0.000000  -0.000029
    12  C   -0.378283   0.120740  -1.263882   0.322890  -0.000090  -0.363654
    13  C   -0.059916   0.105417   0.309374   0.343470   0.000210   0.165153
    14  O   -1.468951  -2.178086   0.263636   1.170936   0.000530  -0.268365
    15  H   -0.015256  -0.017310   0.020079   0.003099   0.000000   0.002661
    16  H   -0.060704   0.088958  -0.007772  -0.032478  -0.000004   0.019804
    17  S   -0.356876  -0.492672   0.247318  -1.083121   0.000193   0.237707
    18  H    0.056316   0.314984  -0.001249  -0.013503  -0.006895  -0.046524
    19  P   20.892680   4.745768  -1.529470  -3.661248  -0.003540   0.758189
    20  C    4.745768  35.898589  -0.971495  -6.173387   0.185903  -6.121160
    21  S   -1.529470  -0.971495  17.103011  -0.428999   0.000521   0.050925
    22  C   -3.661248  -6.173387  -0.428999  27.297114   0.078730  -4.359848
    23  H   -0.003540   0.185903   0.000521   0.078730   0.580391   0.078492
    24  C    0.758189  -6.121160   0.050925  -4.359848   0.078492  17.344772
    25  H   -0.000624   0.043176   0.000023  -0.002995  -0.000970   0.095608
    26  C   -3.150088 -14.684134   0.993225  -2.463404   0.002966  -1.616025
    27  C    0.185817   0.937422  -0.019177  -3.519163  -0.038719   0.030734
    28  H   -0.029526   0.065971   0.017863   0.092904   0.000015  -0.031460
    29  C   -0.722344  -4.998494   0.291920  -1.239393   0.018857  -1.225700
    30  C   -0.006457  -0.051071   0.000463  -0.050956  -0.005714   0.052873
    31  O    0.000983  -0.066044  -0.000111  -0.043136  -0.013594   0.246872
    32  H    0.000698   0.054261  -0.000017   0.003015  -0.000819   0.031390
    33  H   -0.000026  -0.031050  -0.000002   0.001273   0.000098  -0.075343
    34  H    0.000060  -0.003797  -0.000036   0.029468  -0.000152   0.032063
    35  H   -0.027803   0.021089  -0.015749  -0.006996  -0.000000   0.002300
              25         26         27         28         29         30
     1  C   -0.000000  -0.007806  -0.000406  -0.000008   0.000660  -0.000002
     2  C    0.000001   0.071837  -0.003793   0.000039   0.006756  -0.000070
     3  C    0.000004   0.075504  -0.029516  -0.000139   0.065819  -0.000306
     4  C   -0.000000  -0.024880   0.047686   0.000126  -0.073734   0.000776
     5  C   -0.000000  -0.044807   0.009703   0.000300  -0.031141   0.000055
     6  C    0.000000   0.017387   0.000430   0.000051  -0.000351   0.000001
     7  H   -0.000000  -0.000000  -0.000000   0.000000   0.000000   0.000000
     8  H   -0.000000  -0.000001  -0.000000   0.000000   0.000000   0.000000
     9  H   -0.000000  -0.000208  -0.000113   0.000000   0.000201  -0.000001
    10  H   -0.000000   0.000007   0.000000  -0.000000   0.000000   0.000000
    11  H    0.000000   0.000349   0.000002  -0.000000   0.000027  -0.000000
    12  C    0.000017   0.273388   0.000435   0.003396   0.021767  -0.000761
    13  C    0.000003  -0.476835  -0.007287   0.001105  -0.044795   0.001097
    14  O   -0.000000   1.387525  -0.064933   0.001498   0.144810  -0.000552
    15  H    0.000000   0.004516  -0.000260   0.000000   0.000362   0.000001
    16  H    0.000000  -0.048456   0.000126  -0.000002   0.001417   0.000013
    17  S   -0.000021   0.580081  -0.049115   0.003037   0.421257  -0.000803
    18  H    0.000004   0.010266   0.000024  -0.000164  -0.014057   0.001154
    19  P   -0.000624  -3.150088   0.185817  -0.029526  -0.722344  -0.006457
    20  C    0.043176 -14.684134   0.937422   0.065971  -4.998494  -0.051071
    21  S    0.000023   0.993225  -0.019177   0.017863   0.291920   0.000463
    22  C   -0.002995  -2.463404  -3.519163   0.092904  -1.239393  -0.050956
    23  H   -0.000970   0.002966  -0.038719   0.000015   0.018857  -0.005714
    24  C    0.095608  -1.616025   0.030734  -0.031460  -1.225700   0.052873
    25  H    0.577422   0.006758  -0.096859   0.000000  -0.068885   0.415558
    26  C    0.006758  25.408566   0.224275   0.256028  -0.548448   0.029031
    27  C   -0.096859   0.224275   9.026130  -0.012656  -0.877879  -0.058857
    28  H    0.000000   0.256028  -0.012656   0.570557  -0.069850   0.000079
    29  C   -0.068885  -0.548448  -0.877879  -0.069850  15.270847  -0.096980
    30  C    0.415558   0.029031  -0.058857   0.000079  -0.096980   5.031818
    31  O   -0.039261   0.006554   0.420130  -0.000509  -0.582624   0.065143
    32  H   -0.041785  -0.004433  -0.080153   0.000000  -0.007067   0.400228
    33  H   -0.031416  -0.001768   0.075266  -0.000000   0.047809   0.410903
    34  H    0.000005  -0.008531   0.040975  -0.005844   0.232905  -0.001274
    35  H    0.000000  -0.011853   0.000151  -0.000000  -0.000758   0.000001
              31         32         33         34         35
     1  C    0.000000   0.000000   0.000000   0.000000   0.005672
     2  C   -0.000024  -0.000000  -0.000000  -0.000001  -0.003517
     3  C   -0.000063  -0.000001   0.000000  -0.000005  -0.088204
     4  C    0.000030  -0.000000  -0.000000   0.000060  -0.208441
     5  C    0.000006   0.000000  -0.000000  -0.000005   0.181600
     6  C   -0.000000  -0.000000  -0.000000  -0.000001   0.012929
     7  H   -0.000000  -0.000000   0.000000  -0.000000  -0.000000
     8  H    0.000000   0.000000   0.000000   0.000000  -0.000006
     9  H    0.000000   0.000000   0.000000  -0.000000  -0.000042
    10  H    0.000000   0.000000   0.000000  -0.000000   0.000002
    11  H   -0.000000  -0.000000   0.000000   0.000000   0.001260
    12  C   -0.000034  -0.000008  -0.000001  -0.000300   0.456589
    13  C   -0.000079  -0.000020   0.000001   0.000237  -0.105468
    14  O   -0.000020  -0.000000   0.000000   0.000013   0.003190
    15  H    0.000000  -0.000000   0.000000   0.000000  -0.004577
    16  H   -0.000001  -0.000000  -0.000000  -0.000000   0.004699
    17  S    0.000037   0.000039   0.000004  -0.000421   0.007949
    18  H   -0.000490   0.000003  -0.000000   0.000012   0.000003
    19  P    0.000983   0.000698  -0.000026   0.000060  -0.027803
    20  C   -0.066044   0.054261  -0.031050  -0.003797   0.021089
    21  S   -0.000111  -0.000017  -0.000002  -0.000036  -0.015749
    22  C   -0.043136   0.003015   0.001273   0.029468  -0.006996
    23  H   -0.013594  -0.000819   0.000098  -0.000152  -0.000000
    24  C    0.246872   0.031390  -0.075343   0.032063   0.002300
    25  H   -0.039261  -0.041785  -0.031416   0.000005   0.000000
    26  C    0.006554  -0.004433  -0.001768  -0.008531  -0.011853
    27  C    0.420130  -0.080153   0.075266   0.040975   0.000151
    28  H   -0.000509   0.000000  -0.000000  -0.005844  -0.000000
    29  C   -0.582624  -0.007067   0.047809   0.232905  -0.000758
    30  C    0.065143   0.400228   0.410903  -0.001274   0.000001
    31  O    8.467087  -0.040464  -0.062727  -0.011311  -0.000000
    32  H   -0.040464   0.564220  -0.029091   0.000003  -0.000000
    33  H   -0.062727  -0.029091   0.543100  -0.000016  -0.000000
    34  H   -0.011311   0.000003  -0.000016   0.555625  -0.000000
    35  H   -0.000000  -0.000000  -0.000000  -0.000000   0.556525
 Mulliken charges:
               1
     1  C   -0.119815
     2  C   -0.088581
     3  C   -0.374437
     4  C    0.084902
     5  C   -0.053847
     6  C    0.074441
     7  H    0.128505
     8  H    0.132244
     9  H    0.112176
    10  H    0.129664
    11  H    0.129817
    12  C   -0.240680
    13  C   -0.442268
    14  O   -0.210333
    15  H    0.163943
    16  H    0.155400
    17  S   -0.146018
    18  H    0.140780
    19  P   -0.084632
    20  C   -0.716241
    21  S    0.124429
    22  C   -0.000030
    23  H    0.123563
    24  C    0.834543
    25  H    0.144238
    26  C   -0.256585
    27  C   -0.140422
    28  H    0.137190
    29  C    0.077083
    30  C   -0.135391
    31  O   -0.346352
    32  H    0.150002
    33  H    0.152985
    34  H    0.140269
    35  H    0.219456
 Sum of Mulliken charges =  -0.00000
 Mulliken charges with hydrogens summed into heavy atoms:
               1
     1  C    0.008690
     2  C    0.041084
     3  C   -0.262261
     4  C    0.084902
     5  C    0.075970
     6  C    0.206684
    12  C   -0.021225
    13  C   -0.122925
    14  O   -0.210333
    17  S   -0.146018
    19  P   -0.084632
    20  C   -0.575462
    21  S    0.124429
    22  C   -0.000030
    24  C    0.958106
    26  C   -0.119395
    27  C   -0.140422
    29  C    0.217352
    30  C    0.311835
    31  O   -0.346352
 Electronic spatial extent (au):  <R**2>=           9309.4242
 Charge=              0.0000 electrons
 Dipole moment (field-independent basis, Debye):
    X=              0.4498    Y=             -5.7836    Z=              1.6071  Tot=              6.0196
 Quadrupole moment (field-independent basis, Debye-Ang):
   XX=           -110.6615   YY=           -151.1356   ZZ=           -138.4374
   XY=              7.5465   XZ=             -6.1130   YZ=             -8.1206
 Traceless Quadrupole moment (field-independent basis, Debye-Ang):
   XX=             22.7500   YY=            -17.7241   ZZ=             -5.0259
   XY=              7.5465   XZ=             -6.1130   YZ=             -8.1206
 Octapole moment (field-independent basis, Debye-Ang**2):
  XXX=            -53.2333  YYY=            -76.8317  ZZZ=              1.9460  XYY=              7.7964
  XXY=            -72.4548  XXZ=             13.1280  XZZ=            -20.8091  YZZ=             -4.4282
  YYZ=             12.4509  XYZ=             16.2355
 Hexadecapole moment (field-independent basis, Debye-Ang**3):
 XXXX=          -8413.4892 YYYY=          -2483.4883 ZZZZ=           -803.7436 XXXY=            269.8564
 XXXZ=           -420.7911 YYYX=             62.0702 YYYZ=            -29.4702 ZZZX=             42.5448
 ZZZY=            -11.9300 XXYY=          -1804.1671 XXZZ=          -1751.7719 YYZZ=           -564.3031
 XXYZ=            -96.8078 YYXZ=            -16.5789 ZZXY=             32.1702
 N-N= 1.894001718967D+03 E-N=-8.188289453112D+03  KE= 1.858098075052D+03
 Calling FoFJK, ICntrl=      2127 FMM=F ISym2X=0 I1Cent= 0 IOpClX= 0 NMat=1 NMatS=1 NMatT=0.
 ***** Axes restored to original set *****
 -------------------------------------------------------------------
 Center     Atomic                   Forces (Hartrees/Bohr)
 Number     Number              X              Y              Z
 -------------------------------------------------------------------
      1        6          -0.006226852    0.000376329   -0.000981534
      2        6          -0.000417449   -0.000047494    0.001742606
      3        6          -0.002253368    0.000435736    0.001930077
      4        6          -0.002681652    0.000698989   -0.002123706
      5        6           0.001126681   -0.001019815   -0.001567194
      6        6           0.004874992    0.000667882   -0.001401437
      7        1           0.000192636   -0.000085587    0.000417988
      8        1           0.000734680   -0.000109359    0.000786771
      9        1           0.002669840   -0.000073604   -0.000330350
     10        1           0.001317694   -0.000096533    0.000462378
     11        1          -0.000052473   -0.000539083    0.002635039
     12        6           0.003367228   -0.013506912    0.006438142
     13        6          -0.012168711   -0.006986207    0.001889950
     14        8          -0.011366921   -0.000763537   -0.007267957
     15        1           0.003658953   -0.000828004   -0.000180656
     16        1          -0.002359744    0.002071239   -0.003674566
     17       16           0.000023462    0.006222878    0.001205799
     18        1           0.000283818    0.002194038   -0.001103108
     19       15           0.021782998   -0.010156516    0.000568468
     20        6           0.000638588   -0.000580925   -0.000169821
     21       16          -0.003783397    0.015690268   -0.008993788
     22        6           0.001011881    0.005264096    0.011185116
     23        1           0.000947305    0.001235119   -0.000350188
     24        6          -0.002403558   -0.008749030    0.003625282
     25        1          -0.000186743   -0.003141357    0.000655611
     26        6           0.000982015    0.007501980    0.005229857
     27        6           0.000931639    0.007997741   -0.000909197
     28        1          -0.000504829   -0.000230544    0.001724994
     29        6           0.004384814    0.000508708   -0.016810295
     30        6          -0.001350733    0.004491879    0.006991656
     31        8           0.001208347   -0.005891804    0.002155622
     32        1          -0.001342819   -0.002476612   -0.001401385
     33        1          -0.000152072    0.001483899   -0.004687275
     34        1          -0.001008436   -0.001555457    0.001957008
     35        1          -0.001877816   -0.000002403    0.000350096
 -------------------------------------------------------------------
 Cartesian Forces:  Max     0.021782998 RMS     0.004985449

 GradGradGradGradGradGradGradGradGradGradGradGradGradGradGradGradGradGrad
 Berny optimization.
 FormGI is forming the generalized inverse of G from B-inverse, IUseBI=4.
 Internal  Forces:  Max     0.015128841 RMS     0.003236287
 Search for a local minimum.
 Step number   1 out of a maximum of  196
 All quantities printed in internal units (Hartrees-Bohrs-Radians)
 Mixed Optimization -- RFO/linear search
 Second derivative matrix not updated -- first step.
 ITU=  0
     Eigenvalues ---    0.00640   0.00689   0.01287   0.01393   0.01460
     Eigenvalues ---    0.01645   0.01748   0.02032   0.02058   0.02067
     Eigenvalues ---    0.02067   0.02081   0.02089   0.02104   0.02119
     Eigenvalues ---    0.02125   0.02127   0.02139   0.02146   0.02146
     Eigenvalues ---    0.02159   0.02173   0.02182   0.02199   0.03917
     Eigenvalues ---    0.04646   0.04944   0.05747   0.08192   0.08420
     Eigenvalues ---    0.09982   0.10537   0.10620   0.11576   0.12127
     Eigenvalues ---    0.14290   0.15611   0.15994   0.15996   0.15997
     Eigenvalues ---    0.16000   0.16000   0.16000   0.16000   0.16000
     Eigenvalues ---    0.16000   0.16000   0.16000   0.16000   0.16632
     Eigenvalues ---    0.20014   0.21484   0.21999   0.21999   0.22000
     Eigenvalues ---    0.22963   0.23315   0.23467   0.23991   0.24189
     Eigenvalues ---    0.24959   0.24999   0.25000   0.25000   0.26859
     Eigenvalues ---    0.27382   0.31402   0.33924   0.34142   0.34184
     Eigenvalues ---    0.34234   0.34290   0.34315   0.34897   0.34935
     Eigenvalues ---    0.35012   0.35065   0.35117   0.35152   0.35180
     Eigenvalues ---    0.35246   0.35358   0.38581   0.40963   0.41427
     Eigenvalues ---    0.41467   0.41844   0.41985   0.42034   0.42068
     Eigenvalues ---    0.45064   0.45263   0.45819   0.45930   0.46079
     Eigenvalues ---    0.46172   0.46447   0.46898   0.51532
 RFO step:  Lambda=-9.02969527D-03 EMin= 6.40413019D-03
 Linear search not attempted -- first point.
 Iteration  1 RMS(Cart)=  0.06973851 RMS(Int)=  0.00115751
 Iteration  2 RMS(Cart)=  0.00235304 RMS(Int)=  0.00014261
 Iteration  3 RMS(Cart)=  0.00000182 RMS(Int)=  0.00014261
 Iteration  4 RMS(Cart)=  0.00000000 RMS(Int)=  0.00014261
 Variable       Old X    -DE/DX   Delta X   Delta X   Delta X     New X
                                 (Linear)    (Quad)   (Total)
    R1        2.63152   0.00303   0.00000   0.00692   0.00692   2.63844
    R2        2.62844   0.00641   0.00000   0.01393   0.01393   2.64237
    R3        2.05383  -0.00038   0.00000  -0.00104  -0.00104   2.05279
    R4        2.64291  -0.00031   0.00000  -0.00068  -0.00068   2.64224
    R5        2.05485  -0.00092   0.00000  -0.00254  -0.00254   2.05231
    R6        2.65042  -0.00072   0.00000  -0.00218  -0.00218   2.64823
    R7        2.05277  -0.00045   0.00000  -0.00126  -0.00126   2.05152
    R8        2.66015  -0.00294   0.00000  -0.00709  -0.00710   2.65305
    R9        2.85252  -0.00009   0.00000  -0.00029  -0.00029   2.85223
   R10        2.63790  -0.00062   0.00000  -0.00129  -0.00129   2.63661
   R11        2.05842  -0.00141   0.00000  -0.00394  -0.00394   2.05448
   R12        2.05428  -0.00078   0.00000  -0.00217  -0.00217   2.05211
   R13        2.91534  -0.00645   0.00000  -0.02506  -0.02499   2.89035
   R14        3.46215   0.01513   0.00000   0.06183   0.06164   3.52379
   R15        2.07458  -0.00133   0.00000  -0.00383  -0.00383   2.07075
   R16        2.71641   0.00138   0.00000   0.00621   0.00623   2.72263
   R17        2.06936  -0.00030   0.00000  -0.00086  -0.00086   2.06851
   R18        2.07091   0.00030   0.00000   0.00085   0.00085   2.07176
   R19        3.10533   0.01151   0.00000   0.02673   0.02686   3.13219
   R20        3.68565  -0.00175   0.00000  -0.00418  -0.00418   3.68148
   R21        2.05655  -0.00232   0.00000  -0.00647  -0.00647   2.05008
   R22        3.98631   0.01279   0.00000   0.04795   0.04796   4.03427
   R23        3.38403   0.01087   0.00000   0.03915   0.03915   3.42317
   R24        2.65089  -0.00198   0.00000  -0.00485  -0.00485   2.64604
   R25        2.64687  -0.00268   0.00000  -0.00571  -0.00572   2.64115
   R26        2.65093   0.00440   0.00000   0.00893   0.00894   2.65987
   R27        2.05098  -0.00106   0.00000  -0.00294  -0.00294   2.04804
   R28        2.63390   0.00521   0.00000   0.01157   0.01156   2.64546
   R29        2.06844   0.00139   0.00000   0.00395   0.00395   2.07239
   R30        2.05780  -0.00176   0.00000  -0.00491  -0.00491   2.05289
   R31        2.64040  -0.00802   0.00000  -0.01714  -0.01714   2.62326
   R32        2.63681   0.00783   0.00000   0.01709   0.01709   2.65390
   R33        2.58350  -0.00112   0.00000  -0.00213  -0.00213   2.58137
   R34        2.05570  -0.00197   0.00000  -0.00547  -0.00547   2.05023
   R35        2.68837   0.00165   0.00000   0.00383   0.00383   2.69220
   R36        2.07021   0.00046   0.00000   0.00132   0.00132   2.07153
   R37        2.06802  -0.00176   0.00000  -0.00500  -0.00500   2.06302
    A1        2.09059  -0.00158   0.00000  -0.00418  -0.00420   2.08639
    A2        2.09716   0.00052   0.00000   0.00050   0.00050   2.09766
    A3        2.09542   0.00106   0.00000   0.00372   0.00371   2.09914
    A4        2.10034  -0.00058   0.00000  -0.00112  -0.00112   2.09922
    A5        2.08949   0.00137   0.00000   0.00697   0.00697   2.09646
    A6        2.09335  -0.00079   0.00000  -0.00585  -0.00585   2.08750
    A7        2.10694  -0.00004   0.00000  -0.00127  -0.00128   2.10566
    A8        2.05419   0.00274   0.00000   0.01674   0.01674   2.07094
    A9        2.12206  -0.00270   0.00000  -0.01547  -0.01547   2.10659
   A10        2.06041   0.00292   0.00000   0.00926   0.00924   2.06965
   A11        2.15291  -0.00310   0.00000  -0.01092  -0.01092   2.14199
   A12        2.06984   0.00017   0.00000   0.00169   0.00170   2.07153
   A13        2.11457  -0.00090   0.00000  -0.00488  -0.00490   2.10967
   A14        2.09834  -0.00185   0.00000  -0.01115  -0.01114   2.08720
   A15        2.07027   0.00275   0.00000   0.01603   0.01604   2.08631
   A16        2.09339   0.00019   0.00000   0.00237   0.00235   2.09574
   A17        2.09592   0.00067   0.00000   0.00331   0.00331   2.09924
   A18        2.09387  -0.00085   0.00000  -0.00567  -0.00567   2.08820
   A19        2.05580  -0.00613   0.00000  -0.02807  -0.02820   2.02760
   A20        1.96887  -0.00016   0.00000  -0.01179  -0.01175   1.95712
   A21        1.89198   0.00172   0.00000   0.00721   0.00732   1.89930
   A22        1.81992   0.00431   0.00000   0.01446   0.01427   1.83418
   A23        1.86581   0.00170   0.00000   0.00672   0.00658   1.87239
   A24        1.84848  -0.00097   0.00000   0.01663   0.01640   1.86488
   A25        1.92332  -0.00703   0.00000  -0.03453  -0.03464   1.88868
   A26        1.92856   0.00212   0.00000   0.01197   0.01150   1.94005
   A27        1.96812  -0.00223   0.00000  -0.02238  -0.02200   1.94612
   A28        1.88167   0.00131   0.00000  -0.01355  -0.01360   1.86807
   A29        1.87985   0.00485   0.00000   0.03565   0.03514   1.91499
   A30        1.87941   0.00137   0.00000   0.02472   0.02478   1.90419
   A31        1.97423   0.01118   0.00000   0.05990   0.06010   2.03433
   A32        1.91519   0.00822   0.00000   0.05623   0.05645   1.97164
   A33        1.72811  -0.00853   0.00000  -0.04096  -0.04062   1.68749
   A34        1.81991   0.00179   0.00000   0.00791   0.00794   1.82784
   A35        2.05572   0.00126   0.00000  -0.00130  -0.00102   2.05469
   A36        2.06681  -0.00778   0.00000  -0.03547  -0.03571   2.03110
   A37        1.83510   0.00497   0.00000   0.01390   0.01358   1.84868
   A38        2.09913  -0.00082   0.00000  -0.00426  -0.00430   2.09484
   A39        2.07222   0.00065   0.00000   0.00441   0.00438   2.07660
[...]
 ,0.00001121,-0.00001579,0.00000419,0.00002008,0.00000525,0.00001228,0.
 00001292,0.00000558,0.00002143,-0.00005475,-0.00000369,0.00002129,0.00
 002646,-0.00000608,-0.00000562,-0.00000996,-0.00000860,-0.00002254,0.0
 0012493,-0.00034696,0.00011290,-0.00050962,-0.00006914,-0.00013994,0.0
 0078972,0.00081766,0.00050047,0.00006347,0.00007775,0.00003943,0.00006
 015,-0.00002524,-0.00001919,-0.00032287,0.00018851,0.00072185,0.000104
 23,0.00024332,0.00037790,-0.00036465,-0.00183107,-0.00329707,0.0022357
 7,0.00022298,-0.00157165,0.00027326,0.00042436,0.00039413,0.00013418,0
 .00158862,0.00299007,0.00093367,-0.00023379,-0.00168266,-0.00028056,0.
 00272561,0.00372245,-0.08629855,0.03226600,-0.09219676,0.00110321,-0.0
 0107631,-0.00156459,0.02456768,-0.00563797,-0.04494477,-0.00019152,-0.
 00002847,-0.00019994,-0.00370451,-0.00267102,0.00263296,0.07729514,0.0
 2900308,0.53638643,0.00001756,0.00000435,0.00000801,-0.00001279,0.0000
 0305,0.00000480,0.00002200,0.00002220,0.00002921,-0.00006379,0.0000101
 3,-0.00000964,0.00003372,0.00000457,-0.00000908,0.00000527,-0.00000613
 ,-0.00000219,0.00000467,0.00000134,0.00000340,0.00000390,0.00000043,0.
 00000330,-0.00002014,-0.00000319,0.00000777,0.00001613,0.00000004,0.00
 000100,0.00000006,-0.00000420,-0.00001039,0.00001821,-0.00010808,0.000
 04003,-0.00023238,0.00000453,0.00000769,0.00048254,0.00032528,0.000068
 31,0.00003143,0.00002688,0.00000700,0.00005142,0.00001426,0.00000332,0
 .00020940,0.00014333,0.00014431,-0.00002327,-0.00044577,-0.00133034,-0
 .00050302,-0.00020580,-0.00061976,-0.00478884,-0.00364403,0.00639883,0
 .00021245,0.00009857,0.00015861,0.00318995,0.00205513,-0.00111134,0.00
 041682,0.00223183,0.00066465,0.00444451,-0.01891121,-0.02894321,-0.030
 93465,-0.00438776,0.03178474,-0.00567423,-0.00595997,0.00093976,-0.096
 67752,-0.02820458,0.00961548,0.00024984,0.00063923,0.00109682,0.008085
 31,0.02027840,0.03565667,-0.15489983,-0.03058507,0.05602947,0.28301241
 ,-0.00006286,-0.00001091,-0.00002928,0.00004146,-0.00001035,-0.0000470
 8,-0.00006630,-0.00002097,-0.00002621,0.00025112,-0.00010026,0.0000177
 9,-0.00014889,-0.00001304,0.00003816,-0.00001490,0.00002011,-0.0000071
 0,-0.00002881,-0.00001177,-0.00001572,-0.00001895,-0.00001230,-0.00003
 062,0.00007854,-0.00001162,-0.00002171,-0.00003574,0.00000007,0.000012
 69,0.00001562,0.00000715,0.00003250,-0.00021390,0.00046920,-0.00021011
 ,0.00069411,0.00010281,0.00025608,-0.00112869,-0.00106735,-0.00079549,
 -0.00009137,-0.00010664,-0.00007016,-0.00004746,0.00002800,0.00002897,
 0.00071801,-0.00022859,-0.00125778,0.00017509,-0.00080740,-0.00096139,
 0.00050182,0.00274540,0.00563934,-0.00673402,0.00382405,0.00276044,-0.
 00038663,-0.00064855,-0.00066876,0.00105852,-0.00335437,-0.00550584,0.
 00165827,-0.00081680,0.00131435,-0.00833468,-0.01391295,-0.03397281,0.
 00600806,0.00362505,-0.00945061,-0.00288810,0.00385636,0.00227080,-0.0
 4408219,-0.12225565,-0.09294356,0.00003706,0.00024347,0.00017423,0.007
 11715,0.00525625,-0.01075804,-0.01761944,-0.07241305,-0.00415954,0.069
 61809,0.18855604,-0.00013418,-0.00003057,-0.00005960,0.00008845,-0.000
 02390,-0.00008942,-0.00014433,-0.00006677,-0.00007138,0.00053919,-0.00
 025612,0.00005206,-0.00031898,-0.00003092,0.00008602,-0.00003146,0.000
 04417,-0.00001519,-0.00005964,-0.00002045,-0.00003416,-0.00004041,-0.0
 0002078,-0.00006445,0.00016275,-0.00000858,-0.00005612,-0.00008093,0.0
 0000860,0.00002001,0.00003144,0.00002008,0.00006837,-0.00052512,0.0010
 5516,-0.00041669,0.00156332,0.00021184,0.00041743,-0.00239091,-0.00246
 880,-0.00163378,-0.00021216,-0.00023501,-0.00012287,-0.00017712,0.0000
 5640,0.00006030,0.00112178,-0.00062913,-0.00240612,-0.00021691,-0.0001
 8841,-0.00061224,0.00077797,0.00620457,0.01060114,0.00086773,-0.000539
 26,0.00385634,-0.00088288,-0.00146522,-0.00130317,-0.00299445,-0.00670
 907,-0.00988810,-0.00044342,0.00053898,-0.00089494,-0.00924613,-0.0214
 3007,-0.01908484,0.00915176,-0.00327211,0.00350781,0.00655309,0.005818
 74,0.00764886,-0.01976102,-0.11165165,-0.22742930,-0.00008401,-0.00052
 382,-0.00085241,0.01124548,-0.02612005,-0.05518452,0.07993191,0.011060
 59,-0.13239044,-0.12295022,0.14054693,0.47283201,0.00000651,0.00000098
 ,0.00000333,-0.00000398,0.00000083,0.00000620,0.00000776,0.00000084,0.
 00000105,-0.00002584,0.00001175,-0.00000271,0.00001602,0.00000145,-0.0
 0000378,0.00000149,-0.00000196,0.00000080,0.00000328,0.00000142,0.0000
 0173,0.00000202,0.00000137,0.00000355,-0.00000815,0.00000249,0.0000014
 3,0.00000332,0.00000048,-0.00000195,-0.00000188,-0.00000080,-0.0000033
 3,0.00002253,-0.00004916,0.00002037,-0.00006520,-0.00001236,-0.0000271
 6,0.00010112,0.00011577,0.00008028,0.00000812,0.00001121,0.00000670,0.
 00000417,-0.00000316,-0.00000359,-0.00006350,0.00003406,0.00012238,0.0
 0001779,0.00002926,0.00001531,-0.00002442,-0.00029228,-0.00047420,-0.0
 0011367,-0.00005082,0.00008228,0.00004295,0.00006931,0.00007257,0.0001
 7248,0.00032599,0.00044259,-0.00005121,-0.00004648,-0.00018793,0.00083
 175,0.00093687,0.00000467,0.00399324,0.02643348,-0.00858046,-0.0002544
 2,-0.00008046,-0.00040957,0.00038953,-0.00289478,-0.00392218,0.0000174
 7,-0.00003561,0.00004050,-0.00071146,0.00059327,0.00073277,-0.05082330
 ,-0.00821312,0.00126164,-0.01011915,-0.02540329,0.01989067,0.05596688,
 0.00000587,0.00000280,0.00000190,-0.00000398,0.00000218,0.00000284,0.0
 0000634,0.00000662,0.00000298,-0.00002348,0.00001145,-0.00000271,0.000
 01366,0.00000341,-0.00000484,0.00000102,-0.00000256,0.00000066,0.00000
 260,-0.00000002,0.00000183,0.00000176,0.00000013,0.00000290,-0.0000068
 1,-0.00000303,0.00000399,0.00000395,-0.00000222,0.00000023,-0.00000098
 ,-0.00000176,-0.00000281,0.00001798,-0.00005289,0.00001516,-0.00007671
 ,-0.00000503,-0.00000876,0.00013096,0.00013785,0.00004969,0.00001035,0
 .00001179,0.00000560,0.00001261,-0.00000330,-0.00000127,-0.00003542,0.
 00002688,0.00010306,-0.00000675,0.00005660,0.00002889,-0.00008647,-0.0
 0028588,-0.00050918,0.00070087,-0.00029131,-0.00052428,0.00003550,0.00
 006383,0.00004523,-0.00023342,0.00012597,0.00058560,0.00031542,0.00038
 236,-0.00095699,-0.00091684,0.00015121,0.00082695,-0.00089108,-0.00841
 577,0.00115226,0.00013948,0.00002684,-0.00006336,-0.00038131,0.0000119
 7,-0.00247134,-0.00000514,0.00002069,0.00001543,0.00009192,0.00001388,
 0.00051441,-0.01140275,-0.28479747,0.07295803,-0.00663525,0.00499963,0
 .00579391,0.01843319,0.30335336,-0.00000233,-0.00000007,-0.00000134,0.
 00000102,-0.00000191,0.00000074,-0.00000265,-0.00000199,-0.00000456,0.
 00000913,-0.00001116,0.00000156,-0.00000518,0.00000137,0.00000115,0.00
 000006,0.00000030,0.00000011,-0.00000060,0.,-0.00000034,-0.00000064,0.
 00000004,-0.00000064,0.00000189,0.00000177,-0.00000187,-0.00000193,0.0
 0000070,-0.00000061,0.00000011,0.00000052,0.00000101,-0.00001705,0.000
 02517,-0.00001246,0.00003072,0.00000136,-0.00000873,-0.00004688,-0.000
 04985,0.00000019,-0.00000446,-0.00000407,-0.00000112,-0.00000862,0.000
 00155,0.00000040,0.00000446,-0.00000801,0.00000079,-0.00001746,0.00000
 715,-0.00004949,-0.00006141,0.00016392,0.00014004,0.00026553,-0.000652
 18,-0.00040802,-0.00002205,-0.00004530,-0.00003601,-0.00074978,-0.0004
 4061,-0.00000559,-0.00097633,0.00010876,-0.00153709,-0.00043145,-0.000
 20663,0.00023965,-0.00080273,0.01217257,-0.00229686,0.00052693,0.00049
 859,0.00089143,0.00018588,0.00497376,0.00502261,-0.00002452,0.00004266
 ,-0.00003752,0.00092082,-0.00092247,-0.00141698,0.00159369,0.06820569,
 -0.07296545,0.01270917,0.02177032,-0.01863879,-0.01180002,-0.08333321,
 0.08093521,0.00000045,0.00000018,0.00000055,0.00000032,-0.00000065,-0.
 00000146,0.00000091,0.00000290,0.00000444,-0.00000218,0.00000121,-0.00
 000043,0.00000063,-0.00000047,-0.00000057,0.00000009,0.00000021,-0.000
 00057,-0.00000048,-0.00000029,-0.00000041,0.00000014,-0.00000031,-0.00
 000045,-0.00000028,-0.00000005,0.00000027,0.00000089,0.00000018,0.0000
 0088,0.00000024,-0.00000020,-0.00000017,0.00000748,-0.00000234,0.00000
 324,-0.00001169,0.00000235,0.00000634,0.00002255,0.00001928,-0.0000003
 5,0.00000289,0.00000095,0.00000029,0.00000339,0.00000043,0.00000026,0.
 00001395,0.00000045,0.00000080,0.00000536,0.00001065,0.00005531,-0.000
 00489,-0.00002681,-0.00007273,0.00040911,0.00015986,0.00008343,0.00000
 641,0.00000920,0.00000556,0.00011735,0.00010088,-0.00007194,0.00050063
 ,0.00031784,-0.00055691,-0.00088927,-0.00067408,0.00016999,-0.00581515
 ,-0.01730415,-0.01942810,-0.00041301,-0.00029023,-0.00004748,-0.003307
 73,-0.00110067,0.00249376,0.00001192,0.00007179,0.00007421,0.00038915,
 0.00074557,0.00119577,-0.07568546,-0.05490109,-0.07350615,0.00256743,0
 .01790744,0.03070505,0.00050489,0.00071006,-0.00105518,0.08157356,-0.0
 0000301,-0.00000065,-0.00000108,0.00000259,-0.00000150,-0.00000270,-0.
 00000330,0.00000093,0.00000021,0.00001177,-0.00000383,0.00000207,-0.00
 000735,-0.00000106,0.00000198,-0.00000054,0.00000084,-0.00000029,-0.00
 000188,-0.00000044,-0.00000116,-0.00000095,-0.00000058,-0.00000205,0.0
 0000410,-0.00000071,-0.00000142,-0.00000138,0.00000043,0.00000088,0.00
 000098,0.00000067,0.00000153,-0.00000288,0.00002152,-0.00000473,0.0000
 2841,0.00000832,0.00001896,-0.00004195,-0.00004437,-0.00004596,-0.0000
 0299,-0.00000534,-0.00000286,-0.00000047,0.00000165,0.00000213,0.00002
 799,-0.00001845,-0.00006428,-0.00001783,0.00002034,0.00000061,0.000032
 11,0.00008617,0.00018609,0.00003960,0.00023717,-0.00000576,-0.00001702
 ,-0.00001978,-0.00002742,0.00010820,-0.00007947,-0.00011962,0.00048592
 ,-0.00018597,-0.00005211,-0.00051834,-0.00002515,-0.00003768,0.0033516
 8,0.00778651,0.00932545,-0.00004109,-0.00004308,-0.00005454,-0.0005655
 6,0.00091613,0.00137699,0.00001625,-0.00001718,0.00002750,-0.00005471,
 0.00023322,0.00006537,-0.04920841,-0.15053425,-0.12498404,0.00193485,0
 .00368572,0.00360846,-0.00982480,-0.01555004,-0.02238135,0.05427080,0.
 15353055,-0.00000598,-0.00000123,-0.00000257,0.00000411,-0.00000109,-0
 .00000514,-0.00000651,-0.00000202,-0.00000070,0.00002348,-0.00000918,0
 .00000273,-0.00001417,-0.00000115,0.00000354,-0.00000132,0.00000202,-0
 .00000078,-0.00000300,-0.00000119,-0.00000170,-0.00000180,-0.00000126,
 -0.00000319,0.00000760,-0.00000048,-0.00000248,-0.00000327,0.00000028,
 0.00000141,0.00000165,0.00000083,0.00000321,-0.00001514,0.00004541,-0.
 00001395,0.00006576,0.00001194,0.00002402,-0.00009842,-0.00010329,-0.0
 0007545,-0.00000770,-0.00001042,-0.00000536,-0.00000594,0.00000356,0.0
 0000296,0.00003710,-0.00003882,-0.00010675,-0.00000102,-0.00003402,-0.
 00003195,0.00004131,0.00023007,0.00040055,-0.00015235,-0.00015417,0.00
 011600,-0.00004065,-0.00005467,-0.00005701,-0.00004529,-0.00008996,-0.
 00023001,-0.00024374,0.00014252,0.00008714,0.00045607,0.00015870,0.000
 05189,-0.00437258,-0.00700133,-0.00687078,0.00042151,0.00023742,-0.000
 03889,0.00347670,0.00199575,0.00016359,-0.00003199,-0.00003707,-0.0000
 8088,-0.00028762,-0.00087048,-0.00105270,-0.06296823,-0.11830246,-0.19
 673517,0.00115960,-0.01513217,-0.02886294,0.00261291,0.00582058,0.0101
 4708,0.05996890,0.13319284,0.22316545,-0.00000130,0.00000004,-0.000001
 38,0.00000120,0.00000051,-0.00000271,-0.00000170,0.00000141,0.00000127
 ,0.00000262,0.00000704,0.00000083,-0.00000120,0.00000004,0.00000242,-0
 .00000252,-0.00000041,-0.00000046,-0.00000099,-0.00000082,-0.00000060,
 -0.00000038,-0.00000085,-0.00000093,0.00000306,-0.00000177,0.00000019,
 -0.00000070,-0.00000078,0.00000130,0.00000095,-0.00000035,0.00000094,0
 .00000326,0.00000710,0.00000340,0.00005928,-0.00001496,0.00002950,-0.0
 0012413,-0.00009405,-0.00010159,-0.00001366,-0.00000301,-0.00001189,-0
 .00000200,0.00000137,0.00000111,-0.00001464,-0.00002260,-0.00005408,-0
 .00018690,0.00024502,-0.00019291,0.00031946,0.00000231,0.00037481,-0.0
 0012840,0.00086646,0.00062363,0.00002943,0.00002074,0.00010421,0.00315
 069,-0.00168520,0.00159746,-0.00071108,-0.00069693,-0.00044170,-0.0011
 5310,-0.00143370,0.00462002,0.00006635,-0.00005212,-0.00000994,0.00402
 975,0.00147269,0.00092074,-0.01367206,-0.01588202,-0.00809623,-0.00048
 226,0.00190548,-0.00128336,-0.21915170,-0.14019388,-0.04410149,-0.0001
 1275,0.00044198,0.00020219,0.00087771,0.00143137,-0.00194001,0.0001525
 9,0.00007289,-0.00021830,-0.00000923,-0.00000051,0.00003019,0.22707079
 ,-0.00000600,-0.00000048,-0.00000212,0.00000159,-0.00000199,-0.0000032
 1,-0.00000330,-0.00000498,-0.00000446,0.00002574,-0.00002602,0.0000020
 5,-0.00001769,-0.00000128,0.00000384,-0.00000043,0.00000220,-0.0000010
 8,-0.00000221,-0.00000044,-0.00000109,-0.00000200,-0.00000063,-0.00000
 323,0.00000538,0.00000083,-0.00000259,-0.00000255,0.00000124,0.0000004
 3,0.00000177,0.00000087,0.00000240,-0.00003548,0.00004161,-0.00002711,
 0.00001921,0.00001318,-0.00001201,0.00001044,0.00000873,0.00001352,-0.
 00000053,-0.00001288,0.00000380,-0.00000382,0.00000286,0.00000074,0.00
 014925,-0.00004536,-0.00014857,0.00023932,-0.00046935,0.00024201,-0.00
 062582,0.00041226,0.00035056,0.00070403,-0.00032144,0.00030331,-0.0000
 8041,-0.00011939,-0.00024206,-0.00164811,0.00372098,-0.00451944,0.0000
 2263,-0.00004296,-0.00013718,-0.00188606,0.00343227,-0.00081800,0.0001
 5662,0.00000324,-0.00014389,-0.01076683,-0.00537943,-0.00195756,-0.002
 75167,0.00134887,-0.00286640,0.00199288,-0.00232084,0.00186616,-0.1408
 9103,-0.14799218,-0.04650666,0.00026909,-0.00027888,0.00037010,0.00166
 136,-0.00153962,0.00088603,-0.00010230,-0.00000802,0.00008766,-0.00003
 055,0.00000541,0.00001241,0.15360234,0.14958656,-0.00000659,0.,-0.0000
 0405,0.00000350,-0.00000173,-0.00000231,-0.00000398,-0.00000248,-0.000
 00846,0.00001883,-0.00000500,-0.00000350,-0.00001439,0.00000212,0.0000
 0540,-0.00000200,0.00000086,0.00000022,-0.00000196,-0.00000095,-0.0000
 0070,-0.00000198,-0.00000144,-0.00000232,0.00000547,-0.00000201,-0.000
 00232,-0.00000348,-0.00000051,0.00000055,0.00000155,-0.00000009,0.0000
 0281,-0.00003836,0.00001138,0.00000047,0.00017295,-0.00008405,-0.00000
 717,-0.00030896,-0.00042555,-0.00037813,-0.00005525,-0.00002890,-0.000
 02359,-0.00001846,0.00000285,0.00000082,0.00023197,0.00003167,-0.00014
 350,-0.00023244,0.00024530,-0.00006232,-0.00064682,-0.00026801,0.00079
 238,0.00034561,0.00008572,-0.00109458,-0.00003182,-0.00004735,-0.00008
 225,0.00181605,-0.00420221,-0.00286450,0.00087915,0.00070482,0.0002764
 3,0.00376852,-0.00136957,-0.00193585,-0.00018454,0.00003306,0.00011695
 ,-0.02193115,-0.01635548,-0.00230793,0.01652532,0.01251231,0.00857931,
 -0.00093075,0.00199311,0.00014288,-0.04563683,-0.04737473,-0.06877363,
 -0.00010458,0.00016154,-0.00021990,-0.00154428,0.00120716,0.00095555,0
 .00001259,-0.00005234,0.00004033,-0.00002535,-0.00002151,0.00000873,0.
 04794116,0.05325537,0.06699424,0.00028512,-0.00011593,-0.00020817,-0.0
 0052153,0.00073240,0.00139532,-0.00378945,-0.00184914,-0.00381455,-0.0
 2278705,0.00627391,0.02016926,0.00101954,0.00112616,0.00236668,-0.0001
 0598,-0.00005071,-0.00033943,0.00005768,-0.00004870,-0.00007739,0.0000
 1300,-0.00000087,0.00000581,0.00022526,0.00000833,0.00013244,-0.000436
 27,-0.00007935,-0.00019478,0.00038239,-0.00064528,-0.00131594,-0.17207
 648,0.03871120,0.12532101,0.00505736,-0.00120037,-0.00533841,0.0007443
 0,0.00028846,0.00132810,0.00036129,-0.00042337,0.00029446,0.00033197,0
 .00048577,-0.00170915,-0.00007645,0.00011023,0.00054778,-0.00001851,-0
 .00003173,0.00002809,0.00138825,-0.00078700,-0.00119622,0.00002994,0.0
 0006792,-0.00002669,0.00405867,-0.00401146,-0.00510222,-0.00024298,-0.
 00004494,0.00002092,0.00000067,0.00000558,0.00000742,-0.00003524,0.000
 02921,0.00005718,-0.00000111,0.00000011,0.00000006,0.00003420,0.000057
 75,0.00002835,-0.00002598,-0.00001743,0.00000896,-0.00001435,-0.000033
 90,-0.00000330,-0.00001968,-0.00001846,-0.00002813,0.00000427,0.000001
 19,0.00000199,-0.00000314,-0.00000547,0.00000368,0.00000027,-0.0000000
 4,0.00000014,-0.00000041,-0.00000031,-0.00000013,0.00000356,-0.0000048
 5,0.00000130,0.18615687,-0.00003421,0.00002404,-0.00005665,-0.00010351
 ,0.00021773,0.00012846,-0.00066986,0.00101079,-0.00063421,-0.00229882,
 0.00211712,0.00228840,-0.00129226,-0.00032380,0.00034812,0.00004146,-0
 .00007444,0.00002585,-0.00001310,0.00001000,-0.00001194,-0.00001622,-0
 .00003338,-0.00000239,-0.00004463,-0.00022193,0.00007371,-0.00006699,-
 0.00014120,0.00003721,-0.00005979,0.00031985,-0.00010477,0.04492094,-0
 .05237332,-0.04285137,-0.01395276,0.00279702,0.01593864,0.00063448,0.0
 0145998,-0.00108945,-0.00057398,0.00097463,-0.00036110,0.00108653,-0.0
 0130528,0.00383966,-0.00042516,0.00051970,0.00055927,-0.00000466,-0.00
 014872,0.00004121,0.00253081,-0.00252225,0.00017802,-0.00017350,0.0000
 2979,-0.00005717,0.00944550,-0.01937385,-0.01969153,-0.00047414,0.0002
 5793,-0.00028124,0.00000951,-0.00001100,-0.00000068,-0.00002548,0.0000
 7125,0.00007714,0.00000697,0.00000321,0.00000018,0.00013390,0.00019007
 ,0.00003933,-0.00006333,0.00002707,0.00016273,-0.00001545,-0.00002112,
 -0.00001599,0.00003750,-0.00006521,-0.00010032,-0.00004622,-0.00001080
 ,0.00005859,0.00002319,-0.00007709,-0.00016376,0.00000738,0.00000980,-
 0.00000505,-0.00000036,-0.00000371,-0.00000789,0.00000517,-0.00001497,
 -0.00000333,-0.03852891,0.06668207,-0.00012716,0.00000376,0.00010650,-
 0.00051248,0.00008926,0.00037058,-0.00216678,-0.00086639,-0.00117358,-
 0.00957141,0.00249560,0.00840057,-0.00270131,0.00022358,0.00044618,0.0
 0010359,0.00003902,0.00020821,-0.00000442,0.00001389,-0.00001384,0.000
 02472,0.00001677,-0.00001265,0.00001428,0.00008667,0.00006504,-0.00019
 362,0.00001350,-0.00008271,-0.00002326,-0.00006242,0.00001362,0.129363
 72,-0.03712335,-0.18380692,0.02002243,-0.00307639,-0.02019273,-0.00110
 377,-0.00041804,0.00183339,-0.00021593,-0.00006628,0.00114820,-0.00171
 423,0.00288083,-0.00334682,-0.00009056,0.00036476,0.00039030,-0.000011
 37,0.00001683,0.00001527,0.00106969,-0.00117888,-0.00151239,0.00005811
 ,0.00008406,-0.00000368,0.00041622,-0.00516062,-0.00120573,-0.00021958
 ,-0.00001432,-0.00002377,0.00000162,0.00000633,0.00001115,-0.00003639,
 -0.00000323,0.00004530,-0.00000195,0.00000072,-0.00000013,0.00003189,0
 .00005560,0.00001977,-0.00000386,-0.00000606,0.00000786,-0.00002164,-0
 .00002550,-0.00002066,-0.00002017,-0.00002704,-0.00000824,0.00000752,0
 .00000610,-0.00000064,-0.00001148,-0.00000580,0.00000558,0.00000057,-0
 .00000101,0.00000114,-0.00000078,-0.00000052,0.00000010,0.00000224,-0.
 00000375,-0.00000007,-0.13236443,0.04164231,0.19831580\\-0.00000323,0.
 00000331,0.00000623,-0.00000427,-0.00000169,-0.00000529,0.00000513,-0.
 00000049,-0.00000039,0.00000208,0.00000176,0.00000649,-0.00000427,-0.0
 0000303,-0.00000530,0.00000753,-0.00000057,-0.00000064,0.00000058,-0.0
 0000035,-0.00000125,-0.00000104,-0.00000031,0.00000022,-0.00000049,0.0
 0000110,-0.00000059,0.00000065,0.00000123,0.00000018,0.00000053,-0.000
 00022,0.00000128,-0.00000814,-0.00001710,-0.00000631,-0.00000009,0.000
 00496,-0.00000021,0.00000417,-0.00000579,0.00000041,-0.00000093,-0.000
 00092,0.00000098,-0.00000039,0.00000017,-0.00000018,0.00000455,-0.0000
 0432,-0.00000181,-0.00000005,-0.00000076,-0.00000137,-0.00001174,0.000
 00734,0.00000146,-0.00000126,0.00000290,0.00000287,0.00001058,0.000009
 57,0.00000917,-0.00000345,-0.00000345,-0.00000342,0.00000158,-0.000000
 55,-0.00000327,-0.00000140,-0.00000529,-0.00000388,0.00000072,0.000000
 93,0.00000014,0.00000066,-0.00000068,-0.00000234,0.00000102,0.00000557
 ,-0.00000667,0.00000036,-0.00000032,0.00000082,-0.00000034,-0.00000110
 ,0.00000368,-0.00000050,0.00000533,0.00000335,0.00000116,-0.00000184,0
 .00000406,0.00000004,0.00000195,0.00000123,-0.00000119,0.00000111,0.00
 000025,0.00000081,-0.00000071,-0.00000122,0.00000062,0.00000223,0.0000
 0132\\\@
 The archive entry for this job was punched.


 Luck is a matter of preparation meeting opportunity.
                                    -- Oprah Winfrey
 Job cpu time:       0 days  3 hours 24 minutes 45.9 seconds.
 Elapsed time:       0 days  0 hours 12 minutes 51.0 seconds.
 File lengths (MBytes):  RWF=    760 Int=      0 D2E=      0 Chk=     20 Scr=      1
 Normal termination of Gaussian 16 at Wed May 21 11:27:53 2025.
