 Entering Gaussian System, Link 0=g16
 Initial command:
 /opt/packages/gaussian/g16RevC.01/g16/l1.exe "/ocean/projects/che200051p/zlab/tmp/Gau-34941.inp" -scrdir="/ocean/projects/che200051p/zlab/tmp/"
 Entering Link 1 = /opt/packages/gaussian/g16RevC.01/g16/l1.exe PID=     34942.
  
 Copyright (c) 1988-2019, Gaussian, Inc.  All Rights Reserved.
  
 This is part of the Gaussian(R) 16 program.  It is based on
 the Gaussian(R) 09 system (copyright 2009, Gaussian, Inc.),
 the Gaussian(R) 03 system (copyright 2003, Gaussian, Inc.),
 the Gaussian(R) 98 system (copyright 1998, Gaussian, Inc.),
 the Gaussian(R) 94 system (copyright 1995, Gaussian, Inc.),
 the Gaussian 92(TM) system (copyright 1992, Gaussian, Inc.),
 the Gaussian 90(TM) system (copyright 1990, Gaussian, Inc.),
 the Gaussian 88(TM) system (copyright 1988, Gaussian, Inc.),
 the Gaussian 86(TM) system (copyright 1986, Carnegie Mellon
 University), and the Gaussian 82(TM) system (copyright 1983,
 Carnegie Mellon University). Gaussian is a federally registered
 trademark of Gaussian, Inc.
  
 This software contains proprietary and confidential information,
 including trade secrets, belonging to Gaussian, Inc.
  
 This software is provided under written license and may be
 used, copied, transmitted, or stored only in accord with that
 written license.
  
 The following legend is applicable only to US Government
 contracts under FAR:
  
                    RESTRICTED RIGHTS LEGEND
  
 Use, reproduction and disclosure by the US Government is
 subject to restrictions as set forth in subparagraphs (a)
 and (c) of the Commercial Computer Software - Restricted
 Rights clause in FAR 52.227-19.
  
 Gaussian, Inc.
 340 Quinnipiac St., Bldg. 40, Wallingford CT 06492
  
  
 ---------------------------------------------------------------
 Warning -- This program may not be used in any manner that
 competes with the business of Gaussian, Inc. or will provide
 assistance to any competitor of Gaussian, Inc.  The licensee
 of this program is prohibited from giving any competitor of
 Gaussian, Inc. access to this program.  By using this program,
 the user acknowledges that Gaussian, Inc. is engaged in the
 business of creating and licensing software in the field of
 computational chemistry and represents and warrants to the
 licensee that it is not a competitor of Gaussian, Inc. and that
 it will not use this program in any manner prohibited above.
 ---------------------------------------------------------------
  

 Cite this work as:
 Gaussian 16, Revision C.01,
 M. J. Frisch, G. W. Trucks, H. B. Schlegel, G. E. Scuseria, 
 M. A. Robb, J. R. Cheeseman, G. Scalmani, V. Barone, 
 G. A. Petersson, H. Nakatsuji, X. Li, M. Caricato, A. V. Marenich, 
 J. Bloino, B. G. Janesko, R. Gomperts, B. Mennucci, H. P. Hratchian, 
 J. V. Ortiz, A. F. Izmaylov, J. L. Sonnenberg, D. Williams-Young, 
 F. Ding, F. Lipparini, F. Egidi, J. Goings, B. Peng, A. Petrone, 
 T. Henderson, D. Ranasinghe, V. G. Zakrzewski, J. Gao, N. Rega, 
 G. Zheng, W. Liang, M. Hada, M. Ehara, K. Toyota, R. Fukuda, 
 J. Hasegawa, M. Ishida, T. Nakajima, Y. Honda, O. Kitao, H. Nakai, 
 T. Vreven, K. Throssell, J. A. Montgomery, Jr., J. E. Peralta, 
 F. Ogliaro, M. J. Bearpark, J. J. Heyd, E. N. Brothers, K. N. Kudin, 
 V. N. Staroverov, T. A. Keith, R. Kobayashi, J. Normand, 
 K. Raghavachari, A. P. Rendell, J. C. Burant, S. S. Iyengar, 
 J. Tomasi, M. Cossi, J. M. Millam, M. Klene, C. Adamo, R. Cammi, 
 J. W. Ochterski, R. L. Martin, K. Morokuma, O. Farkas, 
 J. B. Foresman, and D. J. Fox, Gaussian, Inc., Wallingford CT, 2019.
 
 ******************************************
 Gaussian 16:  ES64L-G16RevC.01  3-Jul-2019
                22-May-2025 
 ******************************************
 %NProcShared=16
 Will use up to   16 processors via shared memory.
 %Chk=OBn_cis_opt.chk
 -----------------------------
 #n B3LYP/6-31+G(d,p) Opt Freq
 -----------------------------
 1/18=20,19=15,26=3,38=1/1,3;
 2/9=110,12=2,17=6,18=5,40=1/2;
 3/5=1,6=6,7=111,11=2,25=1,30=1,71=1,74=-5/1,2,3;
 4//1;
 5/5=2,38=5/2;
 6/7=2,8=2,9=2,10=2,28=1/1;
 7//1,2,3,16;
 1/18=20,19=15,26=3/3(2);
 2/9=110/2;
 99//99;
 2/9=110/2;
 3/5=1,6=6,7=111,11=2,25=1,30=1,71=1,74=-5/1,2,3;
 4/5=5,16=3,69=1/1;
 5/5=2,38=5/2;
 7//1,2,3,16;
 1/18=20,19=15,26=3/3(-5);
 2/9=110/2;
 6/7=2,8=2,9=2,10=2,19=2,28=1/1;
 99/9=1/99;
 --------------------
 OBn cis optimization
 --------------------
 Symbolic Z-matrix:
 Charge =  0 Multiplicity = 1
 C                     5.1141   -1.2264    1.59526 
 C                     4.6523    0.0682    1.80891 
 C                     3.66764   0.60281   0.97642 
 C                     3.12398  -0.14664  -0.08382 
 C                     3.6068   -1.44808  -0.28627 
 C                     4.59225  -1.98319   0.54942 
 H                     5.88009  -1.64507   2.24265 
 H                     4.95458  -2.99474   0.38224 
 H                     3.31731   1.61772   1.16186 
 H                     5.05622   0.66395   2.6235 
 H                     3.23503  -2.0762   -1.09114 
 C                     2.07024   0.5034   -0.95859 
 C                     1.48611  -0.3706   -2.09061 
 O                     0.9921    0.92506  -0.10275 
 H                     2.52483   1.40158  -1.39944 
 S                     0.07718   0.56199  -2.78763 
 H                    -3.11834   1.74428  -1.48644 
 P                    -0.27383   1.53189  -0.94589 
 C                    -2.97779   0.9666   -0.73656 
 S                    -0.24477   3.48184  -0.91421 
 C                    -1.68691   0.65655  -0.27943 
 H                    -5.07498   0.57316  -0.62905 
 C                    -4.10077   0.29259  -0.24222 
 H                    -6.53912  -0.08989   1.14203 
 C                    -1.5487   -0.34803   0.68757 
 C                    -3.95108  -0.70639   0.718 
 H                    -0.56738  -0.61578   1.07393 
 C                    -2.67112  -1.0218    1.17695 
 C                    -6.2855   -1.12309   0.88245 
 O                    -4.9576   -1.44097   1.2802 
 H                    -6.43254  -1.31041  -0.18633 
 H                    -6.96562  -1.78093   1.43209 
 H                    -2.54695  -1.79913   1.92797 
 H                     1.07773  -1.30623  -1.69535 
 H                     2.22311  -0.59405  -2.86695 
 

 GradGradGradGradGradGradGradGradGradGradGradGradGradGradGradGradGradGrad
 Berny optimization.
 Initialization pass.
                           ----------------------------
                           !    Initial Parameters    !
                           ! (Angstroms and Degrees)  !
 --------------------------                            --------------------------
 ! Name  Definition              Value          Derivative Info.                !
 --------------------------------------------------------------------------------
 ! R1    R(1,2)                  1.391          estimate D2E/DX2                !
 ! R2    R(1,6)                  1.3924         estimate D2E/DX2                !
 ! R3    R(1,7)                  1.0868         estimate D2E/DX2                !
 ! R4    R(2,3)                  1.3959         estimate D2E/DX2                !
 ! R5    R(2,10)                 1.087          estimate D2E/DX2                !
 ! R6    R(3,4)                  1.4076         estimate D2E/DX2                !
 ! R7    R(3,9)                  1.0896         estimate D2E/DX2                !
 ! R8    R(4,5)                  1.4028         estimate D2E/DX2                !
 ! R9    R(4,12)                 1.516          estimate D2E/DX2                !
 ! R10   R(5,6)                  1.3985         estimate D2E/DX2                !
 ! R11   R(5,11)                 1.0865         estimate D2E/DX2                !
 ! R12   R(6,8)                  1.0874         estimate D2E/DX2                !
 ! R13   R(12,13)                1.5448         estimate D2E/DX2                !
 ! R14   R(12,14)                1.4397         estimate D2E/DX2                !
 ! R15   R(12,15)                1.099          estimate D2E/DX2                !
 ! R16   R(13,16)                1.8277         estimate D2E/DX2                !
 ! R17   R(13,34)                1.0947         estimate D2E/DX2                !
 ! R18   R(13,35)                1.0935         estimate D2E/DX2                !
 ! R19   R(14,18)                1.6376         estimate D2E/DX2                !
 ! R20   R(16,18)                2.1109         estimate D2E/DX2                !
 ! R21   R(17,19)                1.0894         estimate D2E/DX2                !
 ! R22   R(18,20)                1.9504         estimate D2E/DX2                !
 ! R23   R(18,21)                1.7909         estimate D2E/DX2                !
 ! R24   R(19,21)                1.4041         estimate D2E/DX2                !
 ! R25   R(19,23)                1.3999         estimate D2E/DX2                !
 ! R26   R(21,25)                1.4012         estimate D2E/DX2                !
 ! R27   R(22,23)                1.0851         estimate D2E/DX2                !
 ! R28   R(23,26)                1.3937         estimate D2E/DX2                !
 ! R29   R(24,29)                1.0951         estimate D2E/DX2                !
 ! R30   R(25,27)                1.0881         estimate D2E/DX2                !
 ! R31   R(25,28)                1.3976         estimate D2E/DX2                !
 ! R32   R(26,28)                1.3959         estimate D2E/DX2                !
 ! R33   R(26,30)                1.367          estimate D2E/DX2                !
 ! R34   R(28,33)                1.088          estimate D2E/DX2                !
 ! R35   R(29,30)                1.4222         estimate D2E/DX2                !
 ! R36   R(29,31)                1.095          estimate D2E/DX2                !
 ! R37   R(29,32)                1.0943         estimate D2E/DX2                !
 ! A1    A(2,1,6)              119.7871         estimate D2E/DX2                !
 ! A2    A(2,1,7)              120.0681         estimate D2E/DX2                !
 ! A3    A(6,1,7)              120.1448         estimate D2E/DX2                !
 ! A4    A(1,2,3)              119.9367         estimate D2E/DX2                !
 ! A5    A(1,2,10)             120.1198         estimate D2E/DX2                !
 ! A6    A(3,2,10)             119.9435         estimate D2E/DX2                !
 ! A7    A(2,3,4)              121.182          estimate D2E/DX2                !
 ! A8    A(2,3,9)              118.8203         estimate D2E/DX2                !
 ! A9    A(4,3,9)              119.9971         estimate D2E/DX2                !
 ! A10   A(3,4,5)              118.0167         estimate D2E/DX2                !
 ! A11   A(3,4,12)             118.3465         estimate D2E/DX2                !
 ! A12   A(5,4,12)             123.6265         estimate D2E/DX2                !
 ! A13   A(4,5,6)              120.7484         estimate D2E/DX2                !
 ! A14   A(4,5,11)             121.6994         estimate D2E/DX2                !
 ! A15   A(6,5,11)             117.5522         estimate D2E/DX2                !
 ! A16   A(1,6,5)              120.3277         estimate D2E/DX2                !
 ! A17   A(1,6,8)              119.7479         estimate D2E/DX2                !
 ! A18   A(5,6,8)              119.9243         estimate D2E/DX2                !
 ! A19   A(4,12,13)            116.3            estimate D2E/DX2                !
 ! A20   A(4,12,14)            107.6439         estimate D2E/DX2                !
 ! A21   A(4,12,15)            107.1218         estimate D2E/DX2                !
 ! A22   A(13,12,14)           108.551          estimate D2E/DX2                !
 ! A23   A(13,12,15)           108.9561         estimate D2E/DX2                !
 ! A24   A(14,12,15)           107.9913         estimate D2E/DX2                !
 ! A25   A(12,13,16)           106.3945         estimate D2E/DX2                !
 ! A26   A(12,13,34)           111.101          estimate D2E/DX2                !
 ! A27   A(12,13,35)           112.3952         estimate D2E/DX2                !
 ! A28   A(16,13,34)           106.6317         estimate D2E/DX2                !
 ! A29   A(16,13,35)           110.6742         estimate D2E/DX2                !
 ! A30   A(34,13,35)           109.4576         estimate D2E/DX2                !
 ! A31   A(12,14,18)           112.4191         estimate D2E/DX2                !
 ! A32   A(13,16,18)            91.7131         estimate D2E/DX2                !
 ! A33   A(14,18,16)            98.6505         estimate D2E/DX2                !
 ! A34   A(14,18,20)           110.5235         estimate D2E/DX2                !
 ! A35   A(14,18,21)           103.7238         estimate D2E/DX2                !
 ! A36   A(16,18,20)           118.1027         estimate D2E/DX2                !
 ! A37   A(16,18,21)           103.3747         estimate D2E/DX2                !
 ! A38   A(20,18,21)           119.6285         estimate D2E/DX2                !
 ! A39   A(17,19,21)           120.0223         estimate D2E/DX2                !
 ! A40   A(17,19,23)           118.8987         estimate D2E/DX2                !
 ! A41   A(21,19,23)           121.0789         estimate D2E/DX2                !
 ! A42   A(18,21,19)           119.7581         estimate D2E/DX2                !
 ! A43   A(18,21,25)           121.9665         estimate D2E/DX2                !
 ! A44   A(19,21,25)           118.2735         estimate D2E/DX2                !
 ! A45   A(19,23,22)           118.023          estimate D2E/DX2                !
 ! A46   A(19,23,26)           120.1484         estimate D2E/DX2                !
 ! A47   A(22,23,26)           121.8285         estimate D2E/DX2                !
 ! A48   A(21,25,27)           120.6921         estimate D2E/DX2                !
 ! A49   A(21,25,28)           120.5351         estimate D2E/DX2                !
 ! A50   A(27,25,28)           118.7725         estimate D2E/DX2                !
 ! A51   A(23,26,28)           119.1425         estimate D2E/DX2                !
 ! A52   A(23,26,30)           126.1168         estimate D2E/DX2                !
 ! A53   A(28,26,30)           114.7406         estimate D2E/DX2                !
 ! A54   A(25,28,26)           120.8212         estimate D2E/DX2                !
 ! A55   A(25,28,33)           119.6364         estimate D2E/DX2                !
 ! A56   A(26,28,33)           119.542          estimate D2E/DX2                !
 ! A57   A(24,29,30)           111.1517         estimate D2E/DX2                !
 ! A58   A(24,29,31)           111.2028         estimate D2E/DX2                !
 ! A59   A(24,29,32)           107.7093         estimate D2E/DX2                !
 ! A60   A(30,29,31)           111.1082         estimate D2E/DX2                !
 ! A61   A(30,29,32)           107.787          estimate D2E/DX2                !
 ! A62   A(31,29,32)           107.6958         estimate D2E/DX2                !
 ! A63   A(26,30,29)           116.8946         estimate D2E/DX2                !
 ! D1    D(6,1,2,3)              0.0789         estimate D2E/DX2                !
 ! D2    D(6,1,2,10)          -179.9742         estimate D2E/DX2                !
 ! D3    D(7,1,2,3)           -179.9484         estimate D2E/DX2                !
 ! D4    D(7,1,2,10)            -0.0014         estimate D2E/DX2                !
 ! D5    D(2,1,6,5)             -0.0046         estimate D2E/DX2                !
 ! D6    D(2,1,6,8)            179.9266         estimate D2E/DX2                !
 ! D7    D(7,1,6,5)           -179.9774         estimate D2E/DX2                !
 ! D8    D(7,1,6,8)             -0.0462         estimate D2E/DX2                !
 ! D9    D(1,2,3,4)              0.114          estimate D2E/DX2                !
 ! D10   D(1,2,3,9)            179.8395         estimate D2E/DX2                !
 ! D11   D(10,2,3,4)          -179.8331         estimate D2E/DX2                !
 ! D12   D(10,2,3,9)            -0.1076         estimate D2E/DX2                !
 ! D13   D(2,3,4,5)             -0.3714         estimate D2E/DX2                !
 ! D14   D(2,3,4,12)          -179.2464         estimate D2E/DX2                !
 ! D15   D(9,3,4,5)            179.9063         estimate D2E/DX2                !
 ! D16   D(9,3,4,12)             1.0313         estimate D2E/DX2                !
 ! D17   D(3,4,5,6)              0.4446         estimate D2E/DX2                !
 ! D18   D(3,4,5,11)          -179.5209         estimate D2E/DX2                !
 ! D19   D(12,4,5,6)           179.2555         estimate D2E/DX2                !
 ! D20   D(12,4,5,11)           -0.7101         estimate D2E/DX2                !
 ! D21   D(3,4,12,13)         -178.8481         estimate D2E/DX2                !
 ! D22   D(3,4,12,14)          -56.8697         estimate D2E/DX2                !
 ! D23   D(3,4,12,15)           59.0513         estimate D2E/DX2                !
 ! D24   D(5,4,12,13)            2.3447         estimate D2E/DX2                !
 ! D25   D(5,4,12,14)          124.3231         estimate D2E/DX2                !
 ! D26   D(5,4,12,15)         -119.7559         estimate D2E/DX2                !
 ! D27   D(4,5,6,1)             -0.2643         estimate D2E/DX2                !
 ! D28   D(4,5,6,8)            179.8046         estimate D2E/DX2                !
 ! D29   D(11,5,6,1)           179.7026         estimate D2E/DX2                !
 ! D30   D(11,5,6,8)            -0.2284         estimate D2E/DX2                !
 ! D31   D(4,12,13,16)         171.0698         estimate D2E/DX2                !
 ! D32   D(4,12,13,34)          55.391          estimate D2E/DX2                !
 ! D33   D(4,12,13,35)         -67.6467         estimate D2E/DX2                !
 ! D34   D(14,12,13,16)         49.5706         estimate D2E/DX2                !
 ! D35   D(14,12,13,34)        -66.1082         estimate D2E/DX2                !
 ! D36   D(14,12,13,35)        170.8542         estimate D2E/DX2                !
 ! D37   D(15,12,13,16)        -67.8001         estimate D2E/DX2                !
 ! D38   D(15,12,13,34)        176.5211         estimate D2E/DX2                !
 ! D39   D(15,12,13,35)         53.4834         estimate D2E/DX2                !
 ! D40   D(4,12,14,18)        -175.1185         estimate D2E/DX2                !
 ! D41   D(13,12,14,18)        -48.4515         estimate D2E/DX2                !
 ! D42   D(15,12,14,18)         69.5338         estimate D2E/DX2                !
 ! D43   D(12,13,16,18)        -28.2314         estimate D2E/DX2                !
 ! D44   D(34,13,16,18)         90.4241         estimate D2E/DX2                !
 ! D45   D(35,13,16,18)       -150.609          estimate D2E/DX2                !
 ! D46   D(12,14,18,16)         23.9633         estimate D2E/DX2                !
 ! D47   D(12,14,18,20)       -100.489          estimate D2E/DX2                !
 ! D48   D(12,14,18,21)        130.1047         estimate D2E/DX2                !
 ! D49   D(13,16,18,14)          3.9573         estimate D2E/DX2                !
 ! D50   D(13,16,18,20)        122.8562         estimate D2E/DX2                !
 ! D51   D(13,16,18,21)       -102.4722         estimate D2E/DX2                !
 ! D52   D(14,18,21,19)        177.3082         estimate D2E/DX2                !
 ! D53   D(14,18,21,25)         -3.2126         estimate D2E/DX2                !
 ! D54   D(16,18,21,19)        -80.1466         estimate D2E/DX2                !
 ! D55   D(16,18,21,25)         99.3325         estimate D2E/DX2                !
 ! D56   D(20,18,21,19)         53.6612         estimate D2E/DX2                !
 ! D57   D(20,18,21,25)       -126.8596         estimate D2E/DX2                !
 ! D58   D(17,19,21,18)         -0.6324         estimate D2E/DX2                !
 ! D59   D(17,19,21,25)        179.8693         estimate D2E/DX2                !
 ! D60   D(23,19,21,18)        179.5014         estimate D2E/DX2                !
 ! D61   D(23,19,21,25)          0.0031         estimate D2E/DX2                !
 ! D62   D(17,19,23,22)          0.0377         estimate D2E/DX2                !
 ! D63   D(17,19,23,26)       -179.9722         estimate D2E/DX2                !
 ! D64   D(21,19,23,22)        179.9054         estimate D2E/DX2                !
 ! D65   D(21,19,23,26)         -0.1045         estimate D2E/DX2                !
 ! D66   D(18,21,25,27)          0.8927         estimate D2E/DX2                !
 ! D67   D(18,21,25,28)       -179.3242         estimate D2E/DX2                !
 ! D68   D(19,21,25,27)       -179.6207         estimate D2E/DX2                !
 ! D69   D(19,21,25,28)          0.1624         estimate D2E/DX2                !
 ! D70   D(19,23,26,28)          0.0397         estimate D2E/DX2                !
 ! D71   D(19,23,26,30)       -179.856          estimate D2E/DX2                !
 ! D72   D(22,23,26,28)       -179.9706         estimate D2E/DX2                !
 ! D73   D(22,23,26,30)          0.1337         estimate D2E/DX2                !
 ! D74   D(21,25,28,26)         -0.2302         estimate D2E/DX2                !
 ! D75   D(21,25,28,33)       -179.9775         estimate D2E/DX2                !
 ! D76   D(27,25,28,26)        179.5569         estimate D2E/DX2                !
 ! D77   D(27,25,28,33)         -0.1904         estimate D2E/DX2                !
 ! D78   D(23,26,28,25)          0.1262         estimate D2E/DX2                !
 ! D79   D(23,26,28,33)        179.8737         estimate D2E/DX2                !
 ! D80   D(30,26,28,25)       -179.9666         estimate D2E/DX2                !
 ! D81   D(30,26,28,33)         -0.219          estimate D2E/DX2                !
 ! D82   D(23,26,30,29)         -2.383          estimate D2E/DX2                !
 ! D83   D(28,26,30,29)        177.7173         estimate D2E/DX2                !
 ! D84   D(24,29,30,26)        -61.0815         estimate D2E/DX2                !
 ! D85   D(31,29,30,26)         63.324          estimate D2E/DX2                !
 ! D86   D(32,29,30,26)       -178.8992         estimate D2E/DX2                !
 --------------------------------------------------------------------------------
 Trust Radius=3.00D-01 FncErr=1.00D-07 GrdErr=1.00D-06 EigMax=2.50D+02 EigMin=1.00D-04
 Number of steps in this run=    196 maximum allowed number of steps=    210.
 GradGradGradGradGradGradGradGradGradGradGradGradGradGradGradGradGradGrad

                          Input orientation:                          
 ---------------------------------------------------------------------
 Center     Atomic      Atomic             Coordinates (Angstroms)
 Number     Number       Type             X           Y           Z
 ---------------------------------------------------------------------
      1          6           0        5.114100   -1.226400    1.595260
      2          6           0        4.652300    0.068200    1.808910
      3          6           0        3.667640    0.602810    0.976420
      4          6           0        3.123980   -0.146640   -0.083820
      5          6           0        3.606800   -1.448080   -0.286270
      6          6           0        4.592250   -1.983190    0.549420
      7          1           0        5.880090   -1.645070    2.242650
      8          1           0        4.954580   -2.994740    0.382240
      9          1           0        3.317310    1.617720    1.161860
     10          1           0        5.056220    0.663950    2.623500
     11          1           0        3.235030   -2.076200   -1.091140
     12          6           0        2.070240    0.503400   -0.958590
     13          6           0        1.486110   -0.370600   -2.090610
     14          8           0        0.992100    0.925060   -0.102750
     15          1           0        2.524830    1.401580   -1.399440
     16         16           0        0.077180    0.561990   -2.787630
     17          1           0       -3.118340    1.744280   -1.486440
     18         15           0       -0.273830    1.531890   -0.945890
     19          6           0       -2.977790    0.966600   -0.736560
     20         16           0       -0.244770    3.481840   -0.914210
     21          6           0       -1.686910    0.656550   -0.279430
     22          1           0       -5.074980    0.573160   -0.629050
     23          6           0       -4.100770    0.292590   -0.242220
     24          1           0       -6.539120   -0.089890    1.142030
     25          6           0       -1.548700   -0.348030    0.687570
     26          6           0       -3.951080   -0.706390    0.718000
     27          1           0       -0.567380   -0.615780    1.073930
     28          6           0       -2.671120   -1.021800    1.176950
     29          6           0       -6.285500   -1.123090    0.882450
     30          8           0       -4.957600   -1.440970    1.280200
     31          1           0       -6.432540   -1.310410   -0.186330
     32          1           0       -6.965620   -1.780930    1.432090
     33          1           0       -2.546950   -1.799130    1.927970
     34          1           0        1.077730   -1.306230   -1.695350
     35          1           0        2.223110   -0.594050   -2.866950
 ---------------------------------------------------------------------
                    Distance matrix (angstroms):
                    1          2          3          4          5
     1  C    0.000000
     2  C    1.391005   0.000000
     3  C    2.412720   1.395852   0.000000
     4  C    2.818824   2.442201   1.407604   0.000000
     5  C    2.421002   2.789615   2.409198   1.402800   0.000000
     6  C    1.392422   2.407929   2.779322   2.435103   1.398511
     7  H    1.086802   2.151951   3.398711   3.905624   3.406184
     8  H    2.150323   3.392398   3.866734   3.417599   2.157678
     9  H    3.391948   2.145200   1.089569   2.168424   3.402942
    10  H    2.152685   1.087026   2.155172   3.423476   3.876629
    11  H    3.386711   3.875228   3.411605   2.179502   1.086537
    12  C    4.333525   3.809920   2.511142   1.515963   2.573190
    13  C    5.242170   5.042178   3.887579   2.599997   2.985621
    14  O    4.950041   4.217312   2.902924   2.386171   3.535835
    15  H    4.751718   4.074008   2.754770   2.118212   3.245053
    16  S    6.912209   6.504132   5.202032   4.134699   4.770262
    17  H    9.278733   8.605314   7.308773   6.671543   7.540496
    18  P    6.564708   5.830786   4.482594   3.886610   4.937065
    19  C    8.702029   8.093504   6.872291   6.236744   7.027821
    20  S    7.561908   6.561221   5.212509   5.020348   6.287528
    21  C    7.301623   6.700217   5.500114   4.881397   5.696743
    22  H   10.583162  10.040847   8.888859   8.248535   8.920550
    23  C    9.518272   8.992982   7.869531   7.239822   7.901804
    24  H   11.717278  11.212386  10.231579   9.740710  10.335590
    25  C    6.781470   6.315303   5.310154   4.740205   5.360751
    26  C    9.122362   8.706792   7.734706   7.142318   7.660301
    27  H    5.737931   5.315363   4.407932   3.897001   4.468405
    28  C    7.799134   7.431013   6.546713   5.994884   6.460264
    29  C   11.422331  11.041421  10.102107   9.509230   9.966400
    30  O   10.078911   9.742038   8.869278   8.297456   8.706482
    31  H   11.683579  11.347036  10.345339   9.627666  10.040781
    32  H   12.093542  11.770189  10.906698  10.332904  10.716325
    33  H    7.689630   7.438434   6.730222   6.239990   6.549407
    34  H    5.208337   5.190997   4.182155   2.851108   2.898590
    35  H    5.354345   5.310669   4.276755   2.959317   3.050225
                    6          7          8          9         10
     6  C    0.000000
     7  H    2.154039   0.000000
     8  H    1.087412   2.477762   0.000000
     9  H    3.868735   4.287394   4.956132   0.000000
    10  H    3.394765   2.481004   4.291805   2.463712   0.000000
    11  H    2.131228   4.277426   2.443648   4.327566   4.962228
    12  C    3.849384   5.420223   4.728026   2.700593   4.666178
    13  C    4.383869   6.301466   5.003137   4.229098   6.003233
    14  O    4.673791   5.999910   5.594756   2.735986   4.900785
    15  H    4.419157   5.814178   5.329700   2.689795   4.809998
    16  S    6.164390   7.990532   6.818169   5.216462   7.354017
    17  H    8.802952  10.313367   9.545801   6.960395   9.213151
    18  P    6.186313   7.624342   7.042058   4.164885   6.473276
    19  C    8.225601   9.703533   8.936802   6.607287   8.713605
    20  S    7.443489   8.588648   8.405957   4.524757   6.968242
    21  C    6.861710   8.301676   7.607832   5.295600   7.341448
    22  H   10.068717  11.540397  10.693208   8.644593  10.640890
    23  C    9.020780  10.466455   9.653800   7.665202   9.602121
    24  H   11.306775  12.564503  11.879418  10.003276  11.713878
    25  C    6.356422   7.699838   7.027870   5.269457   6.956788
    26  C    8.639857   9.992877   9.201090   7.643821   9.308073
    27  H    5.363460   6.632889   6.052266   4.481860   5.971914
    28  C    7.353544   8.639871   7.916777   6.544355   8.040276
    29  C   10.916782  12.252518  11.405818   9.990199  11.612897
    30  O    9.593106  10.882256  10.073323   8.822909  10.320452
    31  H   11.069777  12.554394  11.525048  10.268940  11.991032
    32  H   11.593290  12.871975  12.027747  10.833397  12.325645
    33  H    7.273407   8.434320   7.751885   6.830178   8.022389
    34  H    4.224822   6.219752   4.711413   4.661422   6.193743
    35  H    4.383391   6.370727   4.876626   4.724459   6.305087
                   11         12         13         14         15
    11  H    0.000000
    12  C    2.833486   0.000000
    13  C    2.639457   1.544847   0.000000
    14  O    3.874947   1.439668   2.423710   0.000000
    15  H    3.562918   1.098967   2.167320   2.063429   0.000000
    16  S    4.450859   2.705755   1.827743   2.859629   2.936490
    17  H    7.424126   5.360949   5.102813   4.413778   5.654236
    18  P    5.035028   2.559808   2.833239   1.637592   2.838166
    19  C    6.927012   5.074097   4.852624   4.020381   5.559446
    20  S    6.559887   3.772578   4.384194   2.953885   3.497658
    21  C    5.687907   3.821111   3.795190   2.698223   4.421340
    22  H    8.734352   7.153155   6.787838   6.100023   7.683547
    23  C    7.755372   6.216027   5.921959   5.133887   6.816714
    24  H   10.220885   8.881761   8.656389   7.700576   9.530936
    25  C    5.388363   4.065895   4.114470   2.949751   4.900040
    26  C    7.535884   6.366384   6.128954   5.269752   7.131935
    27  H    4.612882   3.512939   3.780377   2.488120   4.443992
    28  C    6.413938   5.419157   5.327623   4.341322   6.285575
    29  C    9.769543   8.709379   8.354834   7.624238   9.444728
    30  O    8.552541   7.627797   7.350473   6.550540   8.440813
    31  H    9.739970   8.728319   8.198448   7.754327   9.437214
    32  H   10.512237   9.621865   9.264458   8.544204  10.402623
    33  H    6.528636   5.912048   5.869860   4.906109   6.858510
    34  H    2.368938   2.191495   1.094718   2.742693   3.084460
    35  H    2.524728   2.206718   1.093528   3.385836   2.495428
                   16         17         18         19         20
    16  S    0.000000
    17  H    3.647225   0.000000
    18  P    2.110905   2.903195   0.000000
    19  C    3.701816   1.089431   2.770338   0.000000
    20  S    3.484089   3.406460   1.950424   3.718520   0.000000
    21  C    3.067902   2.165415   1.790861   1.404090   3.234962
    22  H    5.586085   2.436202   4.906179   2.136483   5.645588
    23  C    4.899689   2.149571   4.083685   1.399909   5.048923
    24  H    7.722862   4.687725   6.800253   4.162733   7.523578
    25  C    3.943176   3.401154   2.797782   2.408048   4.351303
    26  C    5.488634   3.399823   4.615257   2.421143   5.825986
    27  H    4.088306   4.316570   2.962825   3.404685   4.565881
    28  C    5.077346   3.865857   4.095703   2.776563   5.526563
    29  C    7.536092   4.885115   6.821431   4.234258   7.805369
    30  O    6.775552   4.602498   5.977548   3.712595   7.159627
    31  H    7.255970   4.690985   6.825343   4.174066   7.860278
    32  H    8.537936   5.978837   7.836429   5.306105   8.852779
    33  H    5.890486   4.953830   4.951953   3.864532   6.423913
    34  H    2.384203   5.191942   3.231614   4.746818   5.028399
    35  H    2.438798   5.992052   3.800632   5.832971   5.149418
                   21         22         23         24         25
    21  C    0.000000
    22  H    3.407082   0.000000
    23  C    2.441428   1.085100   0.000000
    24  H    5.110936   2.391666   2.829839   0.000000
    25  C    1.401204   3.875143   2.790693   5.017715   0.000000
    26  C    2.824701   2.171392   1.393697   2.694035   2.429152
    27  H    2.168814   4.963081   3.878432   5.995238   1.088096
    28  C    2.430344   3.403539   2.405320   3.978831   1.397600
    29  C    5.065976   2.574346   2.835856   1.095083   4.803745
    30  O    4.186818   2.777721   2.461128   2.084638   3.628543
    31  H    5.137957   2.363643   2.830174   1.807088   5.053887
    32  H    6.060973   3.655757   3.912821   1.767952   5.652480
    33  H    3.412132   4.307789   3.391073   4.413233   2.154248
    34  H    3.674312   6.521115   5.611121   8.218675   3.673498
    35  H    4.852578   7.722221   6.904114   9.648978   5.188611
                   26         27         28         29         30
    26  C    0.000000
    27  H    3.403575   0.000000
    28  C    1.395857   2.145038   0.000000
    29  C    2.377015   5.743773   3.627772   0.000000
    30  O    1.367026   4.471858   2.326877   1.422171   0.000000
    31  H    2.709298   6.039112   4.011248   1.094989   2.084036
    32  H    3.279026   6.513319   4.368536   1.094267   2.042251
    33  H    2.151671   2.459349   1.087976   3.940419   2.521729
    34  H    5.610080   3.294240   4.731267   7.803573   6.730324
    35  H    7.140386   4.828855   6.363143   9.313127   8.335390
                   31         32         33         34         35
    31  H    0.000000
    32  H    1.767724   0.000000
    33  H    4.450497   4.446445   0.000000
    34  H    7.660373   8.643015   5.148757   0.000000
    35  H    9.089509  10.213872   6.870003   1.786545   0.000000
 Stoichiometry    C15H15O2PS2
 Framework group  C1[X(C15H15O2PS2)]
 Deg. of freedom    99
 Full point group                 C1      NOp   1
 Largest Abelian subgroup         C1      NOp   1
 Largest concise Abelian subgroup C1      NOp   1
                         Standard orientation:                         
 ---------------------------------------------------------------------
 Center     Atomic      Atomic             Coordinates (Angstroms)
 Number     Number       Type             X           Y           Z
 ---------------------------------------------------------------------
      1          6           0       -5.194684   -2.256166   -0.546461
      2          6           0       -4.717515   -1.380223   -1.515961
      3          6           0       -3.727387   -0.452069   -1.189497
      4          6           0       -3.193517   -0.383011    0.111104
      5          6           0       -3.691774   -1.271097    1.075930
      6          6           0       -4.682695   -2.201628    0.747268
      7          1           0       -5.964961   -2.980238   -0.798516
      8          1           0       -5.057034   -2.885891    1.504975
      9          1           0       -3.364992    0.223557   -1.963681
     10          1           0       -5.113680   -1.417797   -2.527528
     11          1           0       -3.328128   -1.264626    2.099788
     12          6           0       -2.132995    0.661190    0.399339
     13          6           0       -1.560185    0.677139    1.833977
     14          8           0       -1.049211    0.448916   -0.524240
     15          1           0       -2.577395    1.642395    0.181451
     16         16           0       -0.141019    1.828678    1.810053
     17          1           0        3.069332    1.915973    0.081389
     18         15           0        0.223007    1.437780   -0.232153
     19          6           0        2.920325    0.841776   -0.022332
     20         16           0        0.216886    2.944045   -1.471218
     21          6           0        1.626301    0.325693   -0.197343
     22          1           0        5.012843    0.448874    0.155306
     23          6           0        4.035750   -0.003105    0.019488
     24          1           0        6.470675   -1.185343   -0.806010
     25          6           0        1.477162   -1.061253   -0.329673
     26          6           0        3.875192   -1.381348   -0.111115
     27          1           0        0.493110   -1.502847   -0.473161
     28          6           0        2.592026   -1.902853   -0.284125
     29          6           0        6.204702   -1.829952    0.038350
     30          8           0        4.873515   -2.314869   -0.085618
     31          1           0        6.348576   -1.312312    0.992472
     32          1           0        6.877537   -2.692788    0.023281
     33          1           0        2.459403   -2.977627   -0.388825
     34          1           0       -1.162472   -0.304582    2.110485
     35          1           0       -2.300453    0.992056    2.574675
 ---------------------------------------------------------------------
 Rotational constants (GHZ):           0.4148680           0.1447709           0.1245139
 Standard basis: 6-31+G(d,p) (6D, 7F)
 There are   467 symmetry adapted cartesian basis functions of A   symmetry.
 There are   467 symmetry adapted basis functions of A   symmetry.
   467 basis functions,   817 primitive gaussians,   467 cartesian basis functions
    84 alpha electrons       84 beta electrons
       nuclear repulsion energy      1908.2198434637 Hartrees.
 NAtoms=   35 NActive=   35 NUniq=   35 SFac= 1.00D+00 NAtFMM=   60 NAOKFM=F Big=F
 Integral buffers will be    131072 words long.
 Raffenetti 2 integral format.
 Two-electron integral symmetry is turned on.
 One-electron integrals computed using PRISM.
 NBasis=   467 RedAO= T EigKep=  1.40D-06  NBF=   467
 NBsUse=   467 1.00D-06 EigRej= -1.00D+00 NBFU=   467
 ExpMin= 3.48D-02 ExpMax= 2.19D+04 ExpMxC= 3.30D+03 IAcc=3 IRadAn=         5 AccDes= 0.00D+00
 Harris functional with IExCor=  402 and IRadAn=       5 diagonalized for initial guess.
 HarFok:  IExCor=  402 AccDes= 0.00D+00 IRadAn=         5 IDoV= 1 UseB2=F ITyADJ=14
 ICtDFT=  3500011 ScaDFX=  1.000000  1.000000  1.000000  1.000000
 FoFCou: FMM=F IPFlag=           0 FMFlag=      100000 FMFlg1=           0
         NFxFlg=           0 DoJE=T BraDBF=F KetDBF=T FulRan=T
         wScrn=  0.000000 ICntrl=       500 IOpCl=  0 I1Cent=   200000004 NGrid=           0
         NMat0=    1 NMatS0=      1 NMatT0=    0 NMatD0=    1 NMtDS0=    0 NMtDT0=    0
 Petite list used in FoFCou.
 Requested convergence on RMS density matrix=1.00D-08 within 128 cycles.
 Requested convergence on MAX density matrix=1.00D-06.
 Requested convergence on             energy=1.00D-06.
 No special actions if energy rises.
 SCF Done:  E(RB3LYP) =  -1868.88927317     A.U. after   17 cycles
            NFock= 17  Conv=0.21D-08     -V/T= 2.0058

 **********************************************************************

            Population analysis using the SCF Density.

 **********************************************************************

 Orbital symmetries:
       Occupied  (A) (A) (A) (A) (A) (A) (A) (A) (A) (A) (A) (A)
                 (A) (A) (A) (A) (A) (A) (A) (A) (A) (A) (A) (A)
                 (A) (A) (A) (A) (A) (A) (A) (A) (A) (A) (A) (A)
                 (A) (A) (A) (A) (A) (A) (A) (A) (A) (A) (A) (A)
                 (A) (A) (A) (A) (A) (A) (A) (A) (A) (A) (A) (A)
                 (A) (A) (A) (A) (A) (A) (A) (A) (A) (A) (A) (A)
                 (A) (A) (A) (A) (A) (A) (A) (A) (A) (A) (A) (A)
       Virtual   (A) (A) (A) (A) (A) (A) (A) (A) (A) (A) (A) (A)
                 (A) (A) (A) (A) (A) (A) (A) (A) (A) (A) (A) (A)
                 (A) (A) (A) (A) (A) (A) (A) (A) (A) (A) (A) (A)
                 (A) (A) (A) (A) (A) (A) (A) (A) (A) (A) (A) (A)
                 (A) (A) (A) (A) (A) (A) (A) (A) (A) (A) (A) (A)
                 (A) (A) (A) (A) (A) (A) (A) (A) (A) (A) (A) (A)
                 (A) (A) (A) (A) (A) (A) (A) (A) (A) (A) (A) (A)
                 (A) (A) (A) (A) (A) (A) (A) (A) (A) (A) (A) (A)
                 (A) (A) (A) (A) (A) (A) (A) (A) (A) (A) (A) (A)
                 (A) (A) (A) (A) (A) (A) (A) (A) (A) (A) (A) (A)
                 (A) (A) (A) (A) (A) (A) (A) (A) (A) (A) (A) (A)
                 (A) (A) (A) (A) (A) (A) (A) (A) (A) (A) (A) (A)
                 (A) (A) (A) (A) (A) (A) (A) (A) (A) (A) (A) (A)
                 (A) (A) (A) (A) (A) (A) (A) (A) (A) (A) (A) (A)
                 (A) (A) (A) (A) (A) (A) (A) (A) (A) (A) (A) (A)
                 (A) (A) (A) (A) (A) (A) (A) (A) (A) (A) (A) (A)
                 (A) (A) (A) (A) (A) (A) (A) (A) (A) (A) (A) (A)
                 (A) (A) (A) (A) (A) (A) (A) (A) (A) (A) (A) (A)
                 (A) (A) (A) (A) (A) (A) (A) (A) (A) (A) (A) (A)
                 (A) (A) (A) (A) (A) (A) (A) (A) (A) (A) (A) (A)
                 (A) (A) (A) (A) (A) (A) (A) (A) (A) (A) (A) (A)
                 (A) (A) (A) (A) (A) (A) (A) (A) (A) (A) (A) (A)
                 (A) (A) (A) (A) (A) (A) (A) (A) (A) (A) (A) (A)
                 (A) (A) (A) (A) (A) (A) (A) (A) (A) (A) (A) (A)
                 (A) (A) (A) (A) (A) (A) (A) (A) (A) (A) (A) (A)
                 (A) (A) (A) (A) (A) (A) (A) (A) (A) (A) (A) (A)
                 (A) (A) (A) (A) (A) (A) (A) (A) (A) (A) (A) (A)
                 (A) (A) (A) (A) (A) (A) (A) (A) (A) (A) (A) (A)
                 (A) (A) (A) (A) (A) (A) (A) (A) (A) (A) (A) (A)
                 (A) (A) (A) (A) (A) (A) (A) (A) (A) (A) (A) (A)
                 (A) (A) (A) (A) (A) (A) (A) (A) (A) (A) (A) (A)
                 (A) (A) (A) (A) (A) (A) (A) (A) (A) (A) (A)
 The electronic state is 1-A.
 Alpha  occ. eigenvalues --  -88.89205 -88.83517 -77.20784 -19.20374 -19.19535
 Alpha  occ. eigenvalues --  -10.28176 -10.27120 -10.25548 -10.24675 -10.22046
 Alpha  occ. eigenvalues --  -10.21928 -10.21571 -10.21470 -10.21178 -10.21132
 Alpha  occ. eigenvalues --  -10.20793 -10.20680 -10.20633 -10.20582 -10.20521
 Alpha  occ. eigenvalues --   -7.95499  -7.89815  -6.66318  -5.91955  -5.91659
 Alpha  occ. eigenvalues --   -5.90960  -5.86368  -5.85623  -5.85535  -4.82765
 Alpha  occ. eigenvalues --   -4.82536  -4.82332  -1.08620  -1.07635  -0.87709
 Alpha  occ. eigenvalues --   -0.87332  -0.82513  -0.80655  -0.77684  -0.76768
 Alpha  occ. eigenvalues --   -0.76111  -0.74574  -0.71103  -0.69227  -0.64987
 Alpha  occ. eigenvalues --   -0.63307  -0.62108  -0.61365  -0.59824  -0.57192
 Alpha  occ. eigenvalues --   -0.55232  -0.53684  -0.52475  -0.50456  -0.49536
 Alpha  occ. eigenvalues --   -0.48715  -0.47970  -0.46598  -0.46183  -0.45155
 Alpha  occ. eigenvalues --   -0.44241  -0.44098  -0.43463  -0.43125  -0.42615
 Alpha  occ. eigenvalues --   -0.40427  -0.39254  -0.38750  -0.38323  -0.37771
 Alpha  occ. eigenvalues --   -0.37354  -0.35909  -0.35757  -0.34829  -0.34618
 Alpha  occ. eigenvalues --   -0.33572  -0.31778  -0.27273  -0.27119  -0.26598
 Alpha  occ. eigenvalues --   -0.26376  -0.24802  -0.23910  -0.22466
 Alpha virt. eigenvalues --   -0.04183  -0.03390  -0.02972  -0.02598  -0.01572
 Alpha virt. eigenvalues --   -0.01394  -0.00339   0.00180   0.01135   0.01602
 Alpha virt. eigenvalues --    0.01718   0.02078   0.02734   0.03037   0.03318
 Alpha virt. eigenvalues --    0.03738   0.04095   0.04436   0.04997   0.05335
 Alpha virt. eigenvalues --    0.05637   0.06099   0.06328   0.06772   0.07478
 Alpha virt. eigenvalues --    0.07668   0.08090   0.08354   0.08494   0.08858
 Alpha virt. eigenvalues --    0.09485   0.09726   0.09849   0.10489   0.10822
 Alpha virt. eigenvalues --    0.11647   0.11765   0.12000   0.12045   0.12715
 Alpha virt. eigenvalues --    0.12917   0.13131   0.13444   0.13900   0.14154
 Alpha virt. eigenvalues --    0.14508   0.14804   0.14913   0.15013   0.15594
 Alpha virt. eigenvalues --    0.15883   0.15967   0.16229   0.16629   0.17197
 Alpha virt. eigenvalues --    0.17405   0.17625   0.18097   0.18322   0.18567
 Alpha virt. eigenvalues --    0.18981   0.19587   0.19746   0.20127   0.20395
 Alpha virt. eigenvalues --    0.20493   0.20844   0.20962   0.21327   0.21442
 Alpha virt. eigenvalues --    0.21818   0.22208   0.22451   0.22788   0.23032
 Alpha virt. eigenvalues --    0.23356   0.24128   0.24267   0.24979   0.25235
 Alpha virt. eigenvalues --    0.25344   0.25511   0.25938   0.26168   0.26484
 Alpha virt. eigenvalues --    0.26637   0.26883   0.27064   0.27372   0.28062
 Alpha virt. eigenvalues --    0.28389   0.28509   0.28801   0.29491   0.29732
 Alpha virt. eigenvalues --    0.29965   0.30503   0.30991   0.31271   0.31621
 Alpha virt. eigenvalues --    0.32101   0.32352   0.33162   0.33918   0.34296
 Alpha virt. eigenvalues --    0.34913   0.35595   0.36298   0.36960   0.37827
 Alpha virt. eigenvalues --    0.38302   0.39141   0.39583   0.40039   0.41174
 Alpha virt. eigenvalues --    0.42426   0.43067   0.43936   0.45378   0.45749
 Alpha virt. eigenvalues --    0.49694   0.50544   0.52696   0.53353   0.54450
 Alpha virt. eigenvalues --    0.55464   0.57362   0.57646   0.59088   0.60161
 Alpha virt. eigenvalues --    0.60501   0.60592   0.62515   0.64816   0.65629
 Alpha virt. eigenvalues --    0.66629   0.67116   0.67446   0.67933   0.68242
 Alpha virt. eigenvalues --    0.68677   0.69081   0.69810   0.70040   0.70489
 Alpha virt. eigenvalues --    0.71922   0.72313   0.72626   0.72849   0.73507
 Alpha virt. eigenvalues --    0.74370   0.74680   0.75522   0.75811   0.76296
 Alpha virt. eigenvalues --    0.76643   0.76749   0.78486   0.78923   0.79571
 Alpha virt. eigenvalues --    0.80001   0.80539   0.82257   0.82745   0.84730
 Alpha virt. eigenvalues --    0.85652   0.86106   0.86817   0.87475   0.87741
 Alpha virt. eigenvalues --    0.87928   0.89221   0.89455   0.90067   0.90838
 Alpha virt. eigenvalues --    0.91754   0.92372   0.92710   0.93166   0.94621
 Alpha virt. eigenvalues --    0.96392   0.96608   0.96873   0.97734   0.98892
 Alpha virt. eigenvalues --    0.99556   1.00750   1.00865   1.01552   1.01931
 Alpha virt. eigenvalues --    1.02639   1.04480   1.04992   1.05863   1.07877
 Alpha virt. eigenvalues --    1.08916   1.09319   1.10400   1.11008   1.13040
 Alpha virt. eigenvalues --    1.13877   1.14534   1.14908   1.15920   1.16523
 Alpha virt. eigenvalues --    1.17962   1.18645   1.19041   1.21137   1.22288
 Alpha virt. eigenvalues --    1.22921   1.23350   1.24943   1.25539   1.26394
 Alpha virt. eigenvalues --    1.28175   1.28433   1.29969   1.30480   1.31235
 Alpha virt. eigenvalues --    1.34712   1.35686   1.36505   1.38434   1.39297
 Alpha virt. eigenvalues --    1.39348   1.39536   1.40282   1.40763   1.40995
 Alpha virt. eigenvalues --    1.41841   1.43019   1.43537   1.44415   1.45767
 Alpha virt. eigenvalues --    1.46215   1.49982   1.52208   1.53227   1.57754
 Alpha virt. eigenvalues --    1.59239   1.62402   1.63641   1.66789   1.70866
 Alpha virt. eigenvalues --    1.74412   1.77263   1.78172   1.80336   1.82058
 Alpha virt. eigenvalues --    1.82619   1.83921   1.86100   1.87561   1.88336
 Alpha virt. eigenvalues --    1.89900   1.90307   1.91292   1.91873   1.92534
 Alpha virt. eigenvalues --    1.93836   1.95589   1.95864   1.96163   1.96939
 Alpha virt. eigenvalues --    1.97394   1.99066   1.99927   2.00230   2.00560
 Alpha virt. eigenvalues --    2.01402   2.01514   2.03624   2.04660   2.05515
 Alpha virt. eigenvalues --    2.06333   2.07717   2.08000   2.08927   2.10167
 Alpha virt. eigenvalues --    2.11035   2.12183   2.13997   2.15541   2.19871
 Alpha virt. eigenvalues --    2.20604   2.22505   2.25570   2.26387   2.26986
 Alpha virt. eigenvalues --    2.28375   2.30201   2.31404   2.31705   2.35887
 Alpha virt. eigenvalues --    2.37674   2.37932   2.38596   2.39925   2.40281
 Alpha virt. eigenvalues --    2.43728   2.44879   2.45918   2.48050   2.48357
 Alpha virt. eigenvalues --    2.49935   2.50294   2.51643   2.51971   2.53232
 Alpha virt. eigenvalues --    2.55274   2.55833   2.56085   2.57523   2.57901
 Alpha virt. eigenvalues --    2.58260   2.59194   2.60731   2.62242   2.63798
 Alpha virt. eigenvalues --    2.64178   2.64370   2.67483   2.69197   2.71322
 Alpha virt. eigenvalues --    2.71695   2.72856   2.74431   2.75675   2.77453
 Alpha virt. eigenvalues --    2.78190   2.80366   2.81415   2.81902   2.83128
 Alpha virt. eigenvalues --    2.84537   2.84923   2.88914   2.96915   2.98097
 Alpha virt. eigenvalues --    3.04759   3.05548   3.05872   3.11044   3.18634
 Alpha virt. eigenvalues --    3.18915   3.22407   3.25803   3.27432   3.27800
 Alpha virt. eigenvalues --    3.29308   3.32662   3.34405   3.36849   3.40204
 Alpha virt. eigenvalues --    3.40256   3.43715   3.46809   3.48942   3.51414
 Alpha virt. eigenvalues --    3.52143   3.52307   3.79891   3.88031   3.96274
 Alpha virt. eigenvalues --    3.98985   4.28292   4.29002   4.30741   4.33276
 Alpha virt. eigenvalues --    4.33586   4.37126   4.42305   4.44273   4.46996
 Alpha virt. eigenvalues --    4.49210   4.50205   4.51848   4.57619   4.59505
 Alpha virt. eigenvalues --    4.69644   4.85537   4.86266
          Condensed to atoms (all electrons):
               1          2          3          4          5          6
     1  C    5.676251   0.551110  -0.557461  -1.260614   1.280493   0.030453
     2  C    0.551110   8.593131  -2.883435   1.464694   0.213879  -0.109679
     3  C   -0.557461  -2.883435  21.346029  -1.592185 -13.190012   2.006185
     4  C   -1.260614   1.464694  -1.592185  25.100204  -9.133768   0.510430
     5  C    1.280493   0.213879 -13.190012  -9.133768  30.478881  -6.438384
     6  C    0.030453  -0.109679   2.006185   0.510430  -6.438384  10.101667
     7  H    0.245146   0.017857  -0.005291   0.008682   0.021509   0.021461
     8  H    0.017978  -0.000222   0.000985   0.022697   0.056276   0.225866
     9  H   -0.003694  -0.112258   0.174230   0.101471   0.099747  -0.008428
    10  H    0.003712   0.283981  -0.001474   0.023166  -0.002609   0.007593
    11  H    0.010152  -0.011277   0.064997   0.049571   0.162136  -0.014994
    12  C    0.107421  -1.784834   0.446444 -11.496873   3.305545   0.385894
    13  C   -0.018965  -0.082388   0.136547   1.869264  -0.650683  -0.270867
    14  O   -0.002638   0.002400   0.249715   0.130266  -0.100953   0.042031
    15  H   -0.000461   0.081277   0.054797   0.107225  -0.067054   0.009102
    16  S    0.020771  -0.056709  -0.141053  -0.519520   0.389742  -0.065780
    17  H   -0.000000   0.000007   0.000139   0.001571  -0.000172  -0.000001
    18  P   -0.062577  -0.022465  -0.606594  -0.087110  -0.223212   0.030546
    19  C    0.010005  -0.017922  -0.054665   0.111474   0.248068  -0.008833
    20  S    0.000374  -0.005607  -0.021726  -0.040265   0.066841   0.008118
    21  C    0.045817   0.076458   0.279135   0.631217   0.162084  -0.082208
    22  H    0.000000  -0.000000  -0.000005   0.000003   0.000001  -0.000000
    23  C    0.000336  -0.005544  -0.027935  -0.100472   0.041608   0.003030
    24  H   -0.000000   0.000000  -0.000000  -0.000001   0.000000   0.000000
    25  C   -0.029010  -0.004396   0.011534  -0.331915  -0.388138   0.014637
    26  C   -0.001784   0.004533   0.020215   0.029274  -0.043750   0.001444
    27  H    0.000893  -0.001684   0.010322   0.016382  -0.005839  -0.002314
    28  C   -0.017734  -0.002119   0.034267  -0.103045  -0.158275   0.076168
    29  C   -0.000003   0.000033   0.000167   0.000103  -0.000169   0.000002
    30  O   -0.000000  -0.000001  -0.000033  -0.000191   0.000070   0.000008
    31  H    0.000000   0.000000   0.000000   0.000001  -0.000000  -0.000000
    32  H    0.000000  -0.000000  -0.000000  -0.000000   0.000000   0.000000
    33  H    0.000018   0.000001  -0.000144  -0.000678   0.000552   0.000005
    34  H    0.000497   0.006939  -0.008720  -0.050472   0.071804   0.007060
    35  H   -0.000770  -0.000111  -0.013920   0.134696  -0.035427   0.024064
               7          8          9         10         11         12
     1  C    0.245146   0.017978  -0.003694   0.003712   0.010152   0.107421
     2  C    0.017857  -0.000222  -0.112258   0.283981  -0.011277  -1.784834
     3  C   -0.005291   0.000985   0.174230  -0.001474   0.064997   0.446444
     4  C    0.008682   0.022697   0.101471   0.023166   0.049571 -11.496873
     5  C    0.021509   0.056276   0.099747  -0.002609   0.162136   3.305545
     6  C    0.021461   0.225866  -0.008428   0.007593  -0.014994   0.385894
     7  H    0.576185  -0.005830  -0.000162  -0.005716  -0.000169  -0.001006
     8  H   -0.005830   0.575082   0.000014  -0.000174  -0.006370  -0.016177
     9  H   -0.000162   0.000014   0.563024  -0.005879  -0.000138   0.039885
    10  H   -0.005716  -0.000174  -0.005879   0.570377   0.000016  -0.004180
    11  H   -0.000169  -0.006370  -0.000138   0.000016   0.600352   0.007065
    12  C   -0.001006  -0.016177   0.039885  -0.004180   0.007065  17.448968
    13  C    0.000347   0.001932   0.006471  -0.000204   0.019678  -2.366578
    14  O    0.000000   0.000004  -0.000476   0.000157  -0.000363  -0.027689
    15  H    0.000000   0.000002   0.000428  -0.000003   0.000058   0.198316
    16  S    0.000015  -0.000117  -0.000547   0.000006   0.007119   0.688094
    17  H   -0.000000  -0.000000  -0.000000  -0.000000   0.000000   0.000662
    18  P   -0.000124  -0.000129   0.009091  -0.000371  -0.000164  -0.359403
    19  C    0.000001   0.000000  -0.001953   0.000020  -0.000388   0.337363
    20  S   -0.000000  -0.000001  -0.000522   0.000019  -0.000100   0.158286
    21  C    0.000025   0.000025  -0.010769   0.000280  -0.002645  -0.848242
    22  H    0.000000  -0.000000  -0.000000   0.000000   0.000000  -0.000078
    23  C   -0.000000   0.000000   0.000081  -0.000000   0.000029   0.156542
    24  H    0.000000  -0.000000  -0.000000   0.000000   0.000000  -0.000004
    25  C   -0.000017  -0.000032   0.008688  -0.000220   0.002702  -0.013954
    26  C    0.000000   0.000000  -0.000021  -0.000000  -0.000002  -0.033537
    27  H    0.000000   0.000000  -0.000010   0.000000  -0.000005  -0.031039
    28  C   -0.000009   0.000018   0.002217  -0.000062  -0.000456   0.120831
    29  C   -0.000000   0.000000  -0.000000   0.000000   0.000000   0.000010
    30  O   -0.000000   0.000000   0.000000  -0.000000  -0.000000   0.000117
    31  H   -0.000000   0.000000   0.000000  -0.000000  -0.000000   0.000004
    32  H   -0.000000  -0.000000   0.000000  -0.000000   0.000000   0.000000
    33  H   -0.000000  -0.000000   0.000000   0.000000   0.000000   0.000419
    34  H    0.000000   0.000002   0.000001   0.000000  -0.001048  -0.111823
    35  H    0.000000  -0.000002  -0.000007   0.000000  -0.001043  -0.170525
              13         14         15         16         17         18
     1  C   -0.018965  -0.002638  -0.000461   0.020771  -0.000000  -0.062577
     2  C   -0.082388   0.002400   0.081277  -0.056709   0.000007  -0.022465
     3  C    0.136547   0.249715   0.054797  -0.141053   0.000139  -0.606594
     4  C    1.869264   0.130266   0.107225  -0.519520   0.001571  -0.087110
     5  C   -0.650683  -0.100953  -0.067054   0.389742  -0.000172  -0.223212
     6  C   -0.270867   0.042031   0.009102  -0.065780  -0.000001   0.030546
     7  H    0.000347   0.000000   0.000000   0.000015  -0.000000  -0.000124
     8  H    0.001932   0.000004   0.000002  -0.000117  -0.000000  -0.000129
     9  H    0.006471  -0.000476   0.000428  -0.000547  -0.000000   0.009091
    10  H   -0.000204   0.000157  -0.000003   0.000006  -0.000000  -0.000371
    11  H    0.019678  -0.000363   0.000058   0.007119   0.000000  -0.000164
    12  C   -2.366578  -0.027689   0.198316   0.688094   0.000662  -0.359403
    13  C    7.436837  -0.176925  -0.106139  -0.225011  -0.000030   0.357238
    14  O   -0.176925   9.308684  -0.036306   0.077426   0.002374  -1.715378
    15  H   -0.106139  -0.036306   0.571712  -0.024539   0.000000   0.018321
    16  S   -0.225011   0.077426  -0.024539  16.811739   0.010291  -1.174841
    17  H   -0.000030   0.002374   0.000000   0.010291   0.561430  -0.008217
    18  P    0.357238  -1.715378   0.018321  -1.174841  -0.008217  21.476095
    19  C   -0.416540   1.464679   0.001152   0.836474   0.217014  -3.562226
    20  S   -0.128207   0.089936   0.003445   0.108237   0.004600  -0.518519
    21  C    0.270595   1.284614   0.014494  -0.530017   0.086404  -3.963312
    22  H    0.000026   0.000022  -0.000000  -0.000837  -0.006387   0.001296
    23  C   -0.063030   0.043498  -0.000402   0.248641  -0.011158  -0.812004
    24  H    0.000001  -0.000000   0.000000  -0.000064   0.000002   0.000529
    25  C    0.333314  -2.131234  -0.009679  -0.505381   0.013228   5.277206
    26  C    0.001023  -0.042411  -0.000030   0.035510  -0.022771   0.211946
    27  H    0.003416  -0.000527   0.000008  -0.010004  -0.000158   0.060866
    28  C    0.013503  -0.299728  -0.000137  -0.145503   0.007352   1.020031
    29  C   -0.000018  -0.000190   0.000000   0.000550   0.000608  -0.002625
    30  O   -0.000121  -0.000029   0.000000  -0.000118  -0.000504  -0.000292
    31  H    0.000001   0.000000  -0.000000   0.000101   0.000004  -0.000387
    32  H   -0.000000  -0.000000   0.000000   0.000003  -0.000000  -0.000088
    33  H   -0.000205   0.000488  -0.000000   0.000421   0.000012  -0.003250
    34  H    0.431177   0.013313   0.004365  -0.036366   0.000001  -0.063210
    35  H    0.396517   0.006937  -0.001513  -0.048194  -0.000000   0.025602
              19         20         21         22         23         24
     1  C    0.010005   0.000374   0.045817   0.000000   0.000336  -0.000000
     2  C   -0.017922  -0.005607   0.076458  -0.000000  -0.005544   0.000000
     3  C   -0.054665  -0.021726   0.279135  -0.000005  -0.027935  -0.000000
     4  C    0.111474  -0.040265   0.631217   0.000003  -0.100472  -0.000001
     5  C    0.248068   0.066841   0.162084   0.000001   0.041608   0.000000
     6  C   -0.008833   0.008118  -0.082208  -0.000000   0.003030   0.000000
     7  H    0.000001  -0.000000   0.000025   0.000000  -0.000000   0.000000
     8  H    0.000000  -0.000001   0.000025  -0.000000   0.000000  -0.000000
     9  H   -0.001953  -0.000522  -0.010769  -0.000000   0.000081  -0.000000
    10  H    0.000020   0.000019   0.000280   0.000000  -0.000000   0.000000
    11  H   -0.000388  -0.000100  -0.002645   0.000000   0.000029   0.000000
    12  C    0.337363   0.158286  -0.848242  -0.000078   0.156542  -0.000004
    13  C   -0.416540  -0.128207   0.270595   0.000026  -0.063030   0.000001
    14  O    1.464679   0.089936   1.284614   0.000022   0.043498  -0.000000
    15  H    0.001152   0.003445   0.014494  -0.000000  -0.000402   0.000000
    16  S    0.836474   0.108237  -0.530017  -0.000837   0.248641  -0.000064
    17  H    0.217014   0.004600   0.086404  -0.006387  -0.011158   0.000002
    18  P   -3.562226  -0.518519  -3.963312   0.001296  -0.812004   0.000529
    19  C   39.470466   1.407444  -7.856221   0.107947  -4.564435   0.039301
    20  S    1.407444  16.707827  -1.269235  -0.000621   0.406160   0.000042
    21  C   -7.856221  -1.269235  30.939151   0.065214  -0.878992   0.002543
    22  H    0.107947  -0.000621   0.065214   0.576188   0.149759  -0.000875
    23  C   -4.564435   0.406160  -0.878992   0.149759  14.050503   0.070844
    24  H    0.039301   0.000042   0.002543  -0.000875   0.070844   0.568209
    25  C  -17.094523  -0.897832  -5.806467   0.013857  -2.247390  -0.000932
    26  C    2.023168   0.015968  -4.845236  -0.022198  -1.058823  -0.090408
    27  H    0.023476  -0.003410  -0.075484   0.000015  -0.022612   0.000000
    28  C   -5.676113   0.036200  -2.036840   0.008574  -0.369212  -0.033374
    29  C    0.097798  -0.000313  -0.034036  -0.002972  -0.026736   0.406473
    30  O    0.003862  -0.000029  -0.052696  -0.014280   0.200109  -0.039223
    31  H    0.065150  -0.000028  -0.003640  -0.000872   0.066167  -0.041659
    32  H   -0.031316   0.000001   0.001354   0.000106  -0.081875  -0.030007
    33  H   -0.020461   0.000233   0.058806  -0.000152   0.038536   0.000002
    34  H    0.016925  -0.000924   0.082774  -0.000000   0.000472   0.000000
    35  H   -0.000294  -0.000032  -0.009975   0.000000  -0.000935  -0.000000
              25         26         27         28         29         30
     1  C   -0.029010  -0.001784   0.000893  -0.017734  -0.000003  -0.000000
     2  C   -0.004396   0.004533  -0.001684  -0.002119   0.000033  -0.000001
     3  C    0.011534   0.020215   0.010322   0.034267   0.000167  -0.000033
     4  C   -0.331915   0.029274   0.016382  -0.103045   0.000103  -0.000191
     5  C   -0.388138  -0.043750  -0.005839  -0.158275  -0.000169   0.000070
     6  C    0.014637   0.001444  -0.002314   0.076168   0.000002   0.000008
     7  H   -0.000017   0.000000   0.000000  -0.000009  -0.000000  -0.000000
     8  H   -0.000032   0.000000   0.000000   0.000018   0.000000   0.000000
     9  H    0.008688  -0.000021  -0.000010   0.002217  -0.000000   0.000000
    10  H   -0.000220  -0.000000   0.000000  -0.000062   0.000000  -0.000000
    11  H    0.002702  -0.000002  -0.000005  -0.000456   0.000000  -0.000000
    12  C   -0.013954  -0.033537  -0.031039   0.120831   0.000010   0.000117
    13  C    0.333314   0.001023   0.003416   0.013503  -0.000018  -0.000121
    14  O   -2.131234  -0.042411  -0.000527  -0.299728  -0.000190  -0.000029
    15  H   -0.009679  -0.000030   0.000008  -0.000137   0.000000   0.000000
    16  S   -0.505381   0.035510  -0.010004  -0.145503   0.000550  -0.000118
    17  H    0.013228  -0.022771  -0.000158   0.007352   0.000608  -0.000504
    18  P    5.277206   0.211946   0.060866   1.020031  -0.002625  -0.000292
    19  C  -17.094523   2.023168   0.023476  -5.676113   0.097798   0.003862
    20  S   -0.897832   0.015968  -0.003410   0.036200  -0.000313  -0.000029
    21  C   -5.806467  -4.845236  -0.075484  -2.036840  -0.034036  -0.052696
    22  H    0.013857  -0.022198   0.000015   0.008574  -0.002972  -0.014280
    23  C   -2.247390  -1.058823  -0.022612  -0.369212  -0.026736   0.200109
    24  H   -0.000932  -0.090408   0.000000  -0.033374   0.406473  -0.039223
    25  C   29.927653   0.192643   0.355293  -0.716244  -0.005917  -0.003219
    26  C    0.192643   9.948851   0.025456  -0.411300  -0.093995   0.408624
    27  H    0.355293   0.025456   0.558544  -0.043992   0.000169  -0.000460
    28  C   -0.716244  -0.411300  -0.043992  15.198870  -0.115733  -0.590864
    29  C   -0.005917  -0.093995   0.000169  -0.115733   5.014916   0.069707
    30  O   -0.003219   0.408624  -0.000460  -0.590864   0.069707   8.482439
    31  H    0.002433  -0.090297   0.000000  -0.060279   0.414689  -0.039991
    32  H    0.001068   0.076612  -0.000000   0.052750   0.409526  -0.063487
    33  H   -0.026755  -0.007087  -0.006258   0.283086  -0.003041  -0.011340
    34  H   -0.053941  -0.004058  -0.000109  -0.018989  -0.000006   0.000001
    35  H    0.007781   0.000438   0.000007   0.000748   0.000000  -0.000000
              31         32         33         34         35
     1  C    0.000000   0.000000   0.000018   0.000497  -0.000770
     2  C    0.000000  -0.000000   0.000001   0.006939  -0.000111
     3  C    0.000000  -0.000000  -0.000144  -0.008720  -0.013920
     4  C    0.000001  -0.000000  -0.000678  -0.050472   0.134696
     5  C   -0.000000   0.000000   0.000552   0.071804  -0.035427
     6  C   -0.000000   0.000000   0.000005   0.007060   0.024064
     7  H   -0.000000  -0.000000  -0.000000   0.000000   0.000000
     8  H    0.000000  -0.000000  -0.000000   0.000002  -0.000002
     9  H    0.000000   0.000000   0.000000   0.000001  -0.000007
    10  H   -0.000000  -0.000000   0.000000   0.000000   0.000000
    11  H   -0.000000   0.000000   0.000000  -0.001048  -0.001043
    12  C    0.000004   0.000000   0.000419  -0.111823  -0.170525
    13  C    0.000001  -0.000000  -0.000205   0.431177   0.396517
    14  O    0.000000  -0.000000   0.000488   0.013313   0.006937
    15  H   -0.000000   0.000000  -0.000000   0.004365  -0.001513
    16  S    0.000101   0.000003   0.000421  -0.036366  -0.048194
    17  H    0.000004  -0.000000   0.000012   0.000001  -0.000000
    18  P   -0.000387  -0.000088  -0.003250  -0.063210   0.025602
    19  C    0.065150  -0.031316  -0.020461   0.016925  -0.000294
    20  S   -0.000028   0.000001   0.000233  -0.000924  -0.000032
    21  C   -0.003640   0.001354   0.058806   0.082774  -0.009975
    22  H   -0.000872   0.000106  -0.000152  -0.000000   0.000000
    23  C    0.066167  -0.081875   0.038536   0.000472  -0.000935
    24  H   -0.041659  -0.030007   0.000002   0.000000  -0.000000
    25  C    0.002433   0.001068  -0.026755  -0.053941   0.007781
    26  C   -0.090297   0.076612  -0.007087  -0.004058   0.000438
    27  H    0.000000  -0.000000  -0.006258  -0.000109   0.000007
    28  C   -0.060279   0.052750   0.283086  -0.018989   0.000748
    29  C    0.414689   0.409526  -0.003041  -0.000006   0.000000
    30  O   -0.039991  -0.063487  -0.011340   0.000001  -0.000000
    31  H    0.572798  -0.030533   0.000004  -0.000000   0.000000
    32  H   -0.030533   0.543762  -0.000014   0.000000  -0.000000
    33  H    0.000004  -0.000014   0.558328  -0.000000   0.000000
    34  H   -0.000000   0.000000  -0.000000   0.541151  -0.033431
    35  H    0.000000  -0.000000   0.000000  -0.033431   0.522118
 Mulliken charges:
               1
     1  C   -0.045714
     2  C   -0.195651
     3  C    0.268942
     4  C    0.404717
     5  C   -0.160790
     6  C   -0.504276
     7  H    0.127097
     8  H    0.128171
     9  H    0.139516
    10  H    0.131567
    11  H    0.115289
    12  C   -0.135921
    13  C   -0.771976
    14  O   -0.181699
    15  H    0.181562
    16  S    0.249463
    17  H    0.143699
    18  P   -0.302268
    19  C   -1.175895
    20  S   -0.126359
    21  C    0.305027
    22  H    0.126268
    23  C    0.795242
    24  H    0.148600
    25  C    0.105158
    26  C   -0.227998
    27  H    0.149059
    28  C   -0.054604
    29  C   -0.128997
    30  O   -0.348060
    31  H    0.146334
    32  H    0.152139
    33  H    0.138475
    34  H    0.206615
    35  H    0.197270
 Sum of Mulliken charges =  -0.00000
 Mulliken charges with hydrogens summed into heavy atoms:
               1
     1  C    0.081382
     2  C   -0.064084
     3  C    0.408458
     4  C    0.404717
     5  C   -0.045501
     6  C   -0.376105
    12  C    0.045641
    13  C   -0.368091
    14  O   -0.181699
    16  S    0.249463
    18  P   -0.302268
    19  C   -1.032195
    20  S   -0.126359
    21  C    0.305027
    23  C    0.921510
    25  C    0.254216
    26  C   -0.227998
    28  C    0.083871
    29  C    0.318076
    30  O   -0.348060
 Electronic spatial extent (au):  <R**2>=           8784.2214
 Charge=             -0.0000 electrons
 Dipole moment (field-independent basis, Debye):
    X=              0.6859    Y=             -3.7380    Z=              2.6605  Tot=              4.6391
 Quadrupole moment (field-independent basis, Debye-Ang):
   XX=           -105.7273   YY=           -150.9382   ZZ=           -140.5603
   XY=              3.4769   XZ=              0.1913   YZ=              3.6682
 Traceless Quadrupole moment (field-independent basis, Debye-Ang):
   XX=             26.6813   YY=            -18.5296   ZZ=             -8.1517
   XY=              3.4769   XZ=              0.1913   YZ=              3.6682
 Octapole moment (field-independent basis, Debye-Ang**2):
  XXX=            174.6012  YYY=            -48.1100  ZZZ=              9.9262  XYY=            -10.0963
  XXY=            -47.2728  XXZ=             -2.1321  XZZ=            -26.5554  YZZ=            -14.7116
  YYZ=             12.8044  XYZ=              1.3504
 Hexadecapole moment (field-independent basis, Debye-Ang**3):
 XXXX=          -7307.1584 YYYY=          -2633.5598 ZZZZ=          -1018.5283 XXXY=            -45.0806
 XXXZ=            117.7811 YYYX=              3.3551 YYYZ=             18.5721 ZZZX=              4.0275
 ZZZY=              8.4272 XXYY=          -1727.1209 XXZZ=          -1551.8832 YYZZ=           -609.6499
 XXYZ=             16.9089 YYXZ=             -0.7737 ZZXY=             -2.4419
 N-N= 1.908219843464D+03 E-N=-8.216916415812D+03  KE= 1.858109895128D+03
 Calling FoFJK, ICntrl=      2127 FMM=F ISym2X=0 I1Cent= 0 IOpClX= 0 NMat=1 NMatS=1 NMatT=0.
 ***** Axes restored to original set *****
 -------------------------------------------------------------------
 Center     Atomic                   Forces (Hartrees/Bohr)
 Number     Number              X              Y              Z
 -------------------------------------------------------------------
      1        6           0.003873359   -0.004678335    0.002209516
      2        6          -0.002992380    0.004485062   -0.000498693
      3        6          -0.000725385    0.003278168    0.000448534
      4        6           0.004088343   -0.003082154    0.004174226
      5        6          -0.000869533   -0.001180436   -0.000879086
      6        6           0.000713956   -0.001291977   -0.000850648
      7        1          -0.000181531   -0.000149568   -0.000329495
      8        1          -0.000845081    0.000751791   -0.000673156
      9        1          -0.000814173   -0.002279468   -0.001827692
     10        1          -0.000627808    0.000164471   -0.000764537
     11        1          -0.001658417    0.002218443   -0.000312618
     12        6           0.014192106   -0.008274952   -0.003362812
     13        6           0.000456751   -0.002392205    0.011585995
     14        8          -0.001574051   -0.011571555   -0.002652770
     15        1          -0.002685622    0.000652123   -0.001998647
     16       16           0.003559183    0.002467171   -0.018025726
     17        1          -0.000283884   -0.001025204    0.002310091
     18       15          -0.000658208    0.018580450    0.008067735
     19        6           0.000075058   -0.000342583    0.001775206
     20       16          -0.007984864   -0.000445282   -0.004784513
     21        6          -0.012263106    0.001962153    0.005929536
     22        1           0.000409521   -0.001172601    0.001083103
     23        6          -0.002964957    0.008250818   -0.008943277
     24        1           0.000500444    0.001715999   -0.002533668
     25        6          -0.002439537   -0.007011872    0.005898184
     26        6           0.002176359   -0.007745943    0.007144260
     27        1          -0.001812726    0.001757938   -0.001410608
     28        6           0.013750978   -0.000043918    0.001494155
     29        6          -0.006791900   -0.003465274    0.002282265
     30        8          -0.002171391    0.004531931   -0.003681988
     31        1           0.000159960    0.002674278   -0.001560750
     32        1           0.004744417   -0.000933441    0.001172871
     33        1          -0.001981500    0.001307636   -0.001214299
     34        1           0.004767702   -0.000677607    0.001082512
     35        1          -0.001142084    0.002965944   -0.000353208
 -------------------------------------------------------------------
 Cartesian Forces:  Max     0.018580450 RMS     0.004900447

 GradGradGradGradGradGradGradGradGradGradGradGradGradGradGradGradGradGrad
 Berny optimization.
 FormGI is forming the generalized inverse of G from B-inverse, IUseBI=4.
 Internal  Forces:  Max     0.014653260 RMS     0.003461540
 Search for a local minimum.
 Step number   1 out of a maximum of  196
 All quantities printed in internal units (Hartrees-Bohrs-Radians)
 Mixed Optimization -- RFO/linear search
 Second derivative matrix not updated -- first step.
 ITU=  0
     Eigenvalues ---    0.00555   0.00593   0.01285   0.01398   0.01424
     Eigenvalues ---    0.01743   0.01763   0.02031   0.02056   0.02066
     Eigenvalues ---    0.02068   0.02080   0.02096   0.02107   0.02119
     Eigenvalues ---    0.02128   0.02129   0.02133   0.02144   0.02147
     Eigenvalues ---    0.02157   0.02173   0.02182   0.02199   0.04212
     Eigenvalues ---    0.04538   0.04996   0.05875   0.08126   0.08641
     Eigenvalues ---    0.09989   0.10191   0.10542   0.10923   0.11689
     Eigenvalues ---    0.14513   0.15952   0.16000   0.16000   0.16000
     Eigenvalues ---    0.16000   0.16000   0.16000   0.16000   0.16000
     Eigenvalues ---    0.16000   0.16000   0.16000   0.16000   0.17519
     Eigenvalues ---    0.19772   0.21068   0.22000   0.22000   0.22000
     Eigenvalues ---    0.22969   0.23466   0.23508   0.24000   0.24324
     Eigenvalues ---    0.24994   0.24999   0.25000   0.25000   0.26850
     Eigenvalues ---    0.27270   0.30759   0.33797   0.34232   0.34242
     Eigenvalues ---    0.34273   0.34324   0.34408   0.34862   0.34878
     Eigenvalues ---    0.35034   0.35048   0.35113   0.35159   0.35185
     Eigenvalues ---    0.35216   0.35385   0.38253   0.40954   0.41438
     Eigenvalues ---    0.41460   0.41829   0.42020   0.42135   0.42704
     Eigenvalues ---    0.45061   0.45283   0.45822   0.45936   0.46089
     Eigenvalues ---    0.46168   0.46438   0.46896   0.51552
 RFO step:  Lambda=-1.04448499D-02 EMin= 5.54793203D-03
 Linear search not attempted -- first point.
 Iteration  1 RMS(Cart)=  0.06031721 RMS(Int)=  0.00105133
 Iteration  2 RMS(Cart)=  0.00149334 RMS(Int)=  0.00018728
 Iteration  3 RMS(Cart)=  0.00000105 RMS(Int)=  0.00018728
 Iteration  4 RMS(Cart)=  0.00000000 RMS(Int)=  0.00018728
 Variable       Old X    -DE/DX   Delta X   Delta X   Delta X     New X
                                 (Linear)    (Quad)   (Total)
    R1        2.62862   0.00674   0.00000   0.01465   0.01464   2.64326
    R2        2.63130   0.00262   0.00000   0.00612   0.00612   2.63741
    R3        2.05376  -0.00027   0.00000  -0.00074  -0.00074   2.05302
    R4        2.63778  -0.00083   0.00000  -0.00173  -0.00174   2.63604
    R5        2.05418  -0.00072   0.00000  -0.00198  -0.00198   2.05221
    R6        2.65999  -0.00332   0.00000  -0.00799  -0.00799   2.65200
    R7        2.05899  -0.00217   0.00000  -0.00605  -0.00605   2.05294
    R8        2.65091  -0.00226   0.00000  -0.00558  -0.00558   2.64533
    R9        2.86475   0.00113   0.00000   0.00356   0.00356   2.86831
   R10        2.64280   0.00052   0.00000   0.00110   0.00110   2.64390
   R11        2.05326  -0.00048   0.00000  -0.00133  -0.00133   2.05192
   R12        2.05491  -0.00088   0.00000  -0.00243  -0.00243   2.05248
   R13        2.91934  -0.00900   0.00000  -0.02814  -0.02824   2.89110
   R14        2.72058   0.00752   0.00000   0.01939   0.01957   2.74015
   R15        2.07675   0.00022   0.00000   0.00064   0.00064   2.07739
   R16        3.45393   0.00906   0.00000   0.03524   0.03528   3.48922
   R17        2.06872  -0.00081   0.00000  -0.00229  -0.00229   2.06643
   R18        2.06647  -0.00112   0.00000  -0.00317  -0.00317   2.06329
   R19        3.09460   0.01241   0.00000   0.02730   0.02728   3.12188
   R20        3.98903   0.01465   0.00000   0.05476   0.05469   4.04372
   R21        2.05873  -0.00229   0.00000  -0.00636  -0.00636   2.05237
   R22        3.68577  -0.00064   0.00000  -0.00153  -0.00153   3.68424
   R23        3.38424   0.01042   0.00000   0.03734   0.03734   3.42158
   R24        2.65335  -0.00164   0.00000  -0.00415  -0.00415   2.64920
   R25        2.64544  -0.00424   0.00000  -0.00915  -0.00916   2.63629
   R26        2.64789   0.00442   0.00000   0.00901   0.00901   2.65690
   R27        2.05054  -0.00106   0.00000  -0.00290  -0.00290   2.04764
   R28        2.63371   0.00663   0.00000   0.01438   0.01438   2.64808
   R29        2.06941   0.00090   0.00000   0.00256   0.00256   2.07197
   R30        2.05620  -0.00257   0.00000  -0.00712  -0.00712   2.04908
   R31        2.64108  -0.00619   0.00000  -0.01309  -0.01308   2.62800
   R32        2.63779   0.00631   0.00000   0.01388   0.01389   2.65167
   R33        2.58330  -0.00159   0.00000  -0.00302  -0.00302   2.58028
   R34        2.05598  -0.00200   0.00000  -0.00554  -0.00554   2.05044
   R35        2.68751   0.00147   0.00000   0.00341   0.00341   2.69092
   R36        2.06923   0.00104   0.00000   0.00296   0.00296   2.07219
   R37        2.06787  -0.00180   0.00000  -0.00509  -0.00509   2.06278
    A1        2.09068  -0.00170   0.00000  -0.00434  -0.00435   2.08633
    A2        2.09558   0.00116   0.00000   0.00399   0.00400   2.09958
    A3        2.09692   0.00054   0.00000   0.00035   0.00035   2.09727
    A4        2.09329   0.00039   0.00000   0.00338   0.00337   2.09666
    A5        2.09649   0.00052   0.00000   0.00252   0.00252   2.09901
    A6        2.09341  -0.00091   0.00000  -0.00590  -0.00590   2.08751
    A7        2.11503  -0.00138   0.00000  -0.00706  -0.00706   2.10797
    A8        2.07381   0.00285   0.00000   0.01620   0.01620   2.09001
    A9        2.09434  -0.00147   0.00000  -0.00917  -0.00917   2.08518
   A10        2.05978   0.00362   0.00000   0.01165   0.01165   2.07143
   A11        2.06554  -0.00082   0.00000  -0.00203  -0.00203   2.06350
   A12        2.15769  -0.00280   0.00000  -0.00961  -0.00961   2.14807
   A13        2.10746  -0.00009   0.00000  -0.00155  -0.00155   2.10591
   A14        2.12406  -0.00277   0.00000  -0.01572  -0.01572   2.10834
   A15        2.05167   0.00285   0.00000   0.01726   0.01726   2.06893
   A16        2.10012  -0.00084   0.00000  -0.00205  -0.00206   2.09806
   A17        2.09000   0.00143   0.00000   0.00692   0.00692   2.09691
   A18        2.09307  -0.00058   0.00000  -0.00486  -0.00486   2.08821
   A19        2.02982  -0.00096   0.00000  -0.00063  -0.00049   2.02933
   A20        1.87874   0.00385   0.00000   0.01625   0.01609   1.89483
   A21        1.86963   0.00205   0.00000   0.02805   0.02811   1.89774
   A22        1.89457  -0.00240   0.00000  -0.02232  -0.02222   1.87236
   A23        1.90164  -0.00090   0.00000  -0.01180  -0.01217   1.88947
   A24        1.88480  -0.00167   0.00000  -0.00969  -0.01027   1.87453
   A25        1.85693   0.00329   0.00000   0.01062   0.01038   1.86731
   A26        1.93908  -0.00162   0.00000  -0.00523  -0.00579   1.93329
   A27        1.96167  -0.00213   0.00000  -0.01963  -0.01979   1.94188
   A28        1.86107   0.00154   0.00000   0.04550   0.04540   1.90647
   A29        1.93163  -0.00177   0.00000  -0.02885  -0.02891   1.90272
   A30        1.91039   0.00088   0.00000   0.00079   0.00085   1.91124
   A31        1.96208   0.00769   0.00000   0.04867   0.04855   2.01063
   A32        1.60070   0.00161   0.00000   0.00615   0.00593   1.60662
   A33        1.72178  -0.00890   0.00000  -0.04147  -0.04092   1.68085
   A34        1.92900   0.01260   0.00000   0.08145   0.08125   2.01024
   A35        1.81032  -0.00308   0.00000  -0.02105  -0.01998   1.79034
   A36        2.06128  -0.00414   0.00000  -0.03140  -0.03047   2.03081
   A37        1.80423   0.01363   0.00000   0.06058   0.06038   1.86461
   A38        2.08791  -0.01016   0.00000  -0.04818  -0.04792   2.03999
   A39        2.09478   0.00025   0.00000   0.00235   0.00237   2.09715
   A40        2.07517  -0.00076   0.00000  -0.00360  -0.00359   2.07159
   A41        2.11323   0.00051   0.00000   0.00124   0.00121   2.11444
   A42        2.09017  -0.00119   0.00000  -0.00370  -0.00370   2.08647
   A43        2.12872  -0.00134   0.00000  -0.00429  -0.00429   2.12442
   A44        2.06426   0.00253   0.00000   0.00805   0.00803   2.07229
   A45        2.05989   0.00249   0.00000   0.01214   0.01214   2.07203
   A46        2.09699  -0.00239   0.00000  -0.00908  -0.00911   2.08787
   A47        2.12631  -0.00010   0.00000  -0.00306  -0.00305   2.12325
[...]
 00009102,-0.00003436,0.00004484,-0.00021758,0.00002222,-0.00007190,0.0
 0014341,0.00001036,0.00000729,0.00001127,0.00003577,-0.00000965,0.0000
 2157,0.00004022,-0.00000266,0.00000849,-0.00003377,0.00003872,-0.00011
 854,0.00000265,-0.00002375,0.00004075,-0.00004114,-0.00000799,-0.00000
 536,-0.00076117,0.00031677,0.00037286,0.00012576,-0.00000806,-0.000539
 20,0.00222361,-0.00036310,-0.00021226,0.00010973,-0.00001811,-0.000063
 92,0.00089623,-0.00036636,-0.00026891,0.00054520,-0.00008853,-0.000731
 47,-0.00593938,-0.00203223,0.00292716,-0.00248103,0.00396613,0.0060020
 8,0.00072781,0.00112795,-0.00080392,0.00489919,0.00243078,-0.00425802,
 -0.00086950,-0.00139744,-0.00154156,0.02384791,0.01765235,-0.00900193,
 0.01911924,-0.00983126,0.00043946,-0.00186272,-0.00025572,0.00493276,0
 .08434314,0.06921343,-0.11455465,0.00020302,-0.00005696,0.00006859,0.0
 2134460,-0.00045599,-0.00298433,0.02071784,-0.00222806,-0.06737028,-0.
 16512919,-0.07728989,0.17892789,-0.00000157,0.00000104,-0.00000066,-0.
 00000236,-0.00000264,0.00000248,0.00000694,-0.00000145,-0.00000474,-0.
 00000462,0.00000277,0.00000924,-0.00000016,0.00000285,-0.00000523,-0.0
 0000176,-0.00000138,0.00000014,-0.00000177,0.00000067,-0.00000107,-0.0
 0000218,-0.00000002,-0.00000010,0.00000128,0.00000025,0.00000365,0.000
 00155,0.00000070,0.00000002,0.00000088,0.00000012,0.00000106,0.0000336
 4,-0.00001451,-0.00002531,-0.00000604,0.00000770,0.00001488,-0.0001062
 8,0.00000893,0.00003771,-0.00000529,-0.00000028,0.00000279,-0.00002464
 ,0.00000956,0.00000363,-0.00005274,-0.00002394,0.00000850,0.00032629,0
 .00006443,-0.00027680,-0.00028266,0.00002085,0.00066126,-0.00003039,-0
 .00008936,0.00006442,0.00003288,-0.00089140,0.00033643,-0.00113173,-0.
 00120322,-0.00025794,0.00028097,-0.00057921,0.00027129,-0.00085578,-0.
 00006557,-0.00717805,0.00074788,0.00082158,-0.00038347,0.00522033,0.00
 266639,-0.00550450,-0.00005297,-0.00002135,-0.00004863,-0.00161392,0.0
 0041156,0.00129899,-0.08781324,0.01513583,-0.08597695,-0.02798271,0.01
 469072,-0.02090623,0.10271770,0.00000478,-0.00000153,0.00000417,0.0000
 0390,0.00000366,-0.00000655,-0.00000328,0.00000052,0.00000895,0.000000
 27,0.00000416,-0.00002002,0.00000231,-0.00000639,0.00001332,0.00000177
 ,0.00000051,0.00000038,0.00000376,-0.00000117,0.00000240,0.00000466,-0
 .00000004,0.00000056,-0.00000346,0.00000176,-0.00001112,-0.00000126,-0
 .00000237,0.00000245,-0.00000351,-0.00000036,-0.00000121,-0.00007749,0
 .00002782,0.00003850,0.00001046,-0.00000621,-0.00004588,0.00021381,-0.
 00003073,-0.00003027,0.00001019,-0.00000071,-0.00000684,0.00009085,-0.
 00003212,-0.00004004,-0.00000389,0.00000206,-0.00002850,-0.00050873,-0
 .00016101,0.00029631,-0.00015942,0.00000606,0.00024012,0.00007563,0.00
 009932,-0.00008148,0.00048948,0.00015690,-0.00026473,-0.00067190,-0.00
 034909,-0.00008205,0.00006976,0.00072128,-0.00072668,-0.01139242,0.006
 90165,-0.02423772,-0.00016817,-0.00009985,-0.00007175,-0.00292585,-0.0
 0069356,0.00176411,0.00004398,0.00000119,0.00001427,0.00051322,-0.0002
 4393,-0.00046437,0.01580139,-0.05906604,0.03994912,0.01885325,-0.00799
 269,0.01507391,-0.02772273,0.06270781,-0.00000036,-0.00000055,0.000000
 44,-0.00000210,0.00000137,0.00000008,0.00000472,-0.00000061,-0.0000024
 0,0.00000018,0.00000250,0.00000541,-0.00000117,0.00000083,-0.00000422,
 -0.00000068,0.00000005,0.00000049,-0.00000114,0.00000032,-0.00000142,-
 0.00000249,-0.00000025,0.00000009,0.00000050,-0.00000218,0.00000078,0.
 00000204,-0.00000078,0.00000068,0.00000088,-0.00000037,0.00000132,0.00
 003388,-0.00001373,-0.00001469,-0.00001345,0.00000465,0.00002991,-0.00
 007038,0.00000150,0.00003039,-0.00000595,0.00000083,0.00000379,-0.0000
 5774,0.00001178,0.00002536,-0.00002280,0.,0.00004906,0.00033182,0.0001
 8781,-0.00017990,0.00069622,-0.00049287,-0.00050472,-0.00002070,-0.000
 08721,0.00004946,-0.00048774,0.00016238,0.00009860,0.00103093,-0.00012
 070,0.00028546,-0.00108648,0.00086632,0.00021826,-0.00456876,0.0039600
 0,-0.01271942,-0.00002904,-0.00026743,0.00005382,0.00120922,0.00046897
 ,0.00095851,-0.00000655,0.00000910,0.00003685,-0.00020121,-0.00028983,
 -0.00023885,-0.09142257,0.04205123,-0.26219980,0.00025859,0.00081972,0
 .01212095,0.10094005,-0.04844025,0.27522083,-0.00000469,0.00000212,-0.
 00000400,-0.00000439,-0.00000462,0.00000830,0.00000274,0.00000061,-0.0
 0000934,0.00000286,-0.00000355,0.00001576,-0.00000145,0.00000587,-0.00
 001083,-0.00000105,-0.00000089,-0.00000072,-0.00000354,0.00000081,-0.0
 0000179,-0.00000352,0.00000016,-0.00000061,0.00000390,-0.00000225,0.00
 001121,0.00000038,0.00000189,-0.00000322,0.00000289,0.00000049,0.00000
 055,0.00006559,-0.00002204,-0.00002829,-0.00000239,0.00000457,0.000032
 40,-0.00016556,0.00001172,0.00002637,-0.00000925,0.00000070,0.00000498
 ,-0.00006161,0.00001630,0.00001982,-0.00003704,-0.00000155,0.00003391,
 0.00038807,0.00011836,-0.00023248,0.00019400,-0.00025516,0.00014002,-0
 .00005597,-0.00008902,0.00006308,-0.00014531,-0.00016223,0.00011478,0.
 00027658,-0.00030139,-0.00019202,-0.00016243,0.00070447,-0.00011510,-0
 .00228600,-0.00477549,0.00319355,-0.00015295,0.00050701,-0.00015543,-0
 .00158996,0.00427359,-0.00108151,-0.00011159,-0.00004870,0.00005574,-0
 .00106821,-0.00083611,0.00097674,-0.14245354,-0.09476456,0.08489362,-0
 .03218524,-0.01160716,0.02000258,0.01051732,0.00744509,-0.00655570,0.1
 6905099,-0.00000093,-0.00000024,-0.00000146,-0.00000144,-0.00000023,0.
 00000278,0.00000057,-0.00000216,-0.00000346,0.00000053,0.00000043,0.00
 000654,-0.00000182,0.00000156,-0.00000480,-0.00000009,0.00000017,-0.00
 000031,-0.00000129,0.00000054,-0.00000079,-0.00000165,0.00000011,-0.00
 000006,0.00000116,-0.00000183,0.00000362,0.00000054,0.00000090,-0.0000
 0069,0.00000141,0.00000013,0.00000032,0.00002130,-0.00001106,-0.000010
 11,0.00000081,-0.00000272,0.00000904,-0.00006562,0.00001554,0.00000083
 ,-0.00000323,0.,0.00000204,-0.00002022,0.00000965,0.00001393,0.0000503
 2,0.00001630,-0.00001498,0.00005794,0.00001402,-0.00003552,-0.00001673
 ,0.00040041,-0.00007466,-0.00002179,-0.00000147,0.00000975,-0.00015917
 ,0.00009722,-0.00000435,-0.00064458,0.00044895,-0.00014000,0.00041051,
 -0.00088710,0.00037882,-0.01476299,-0.01304704,0.01546370,0.00002261,-
 0.00033961,0.00014917,0.00319924,-0.00185194,-0.00030710,0.00005700,0.
 00002856,-0.00005804,0.00076950,0.00059820,-0.00050987,-0.10630403,-0.
 14765993,0.09238499,0.02072182,0.01132656,-0.01434079,-0.00302712,-0.0
 0202978,0.00118299,0.09974229,0.15288535,0.00000174,-0.00000042,0.0000
 0145,0.00000205,-0.00000002,-0.00000207,-0.00000280,0.00000014,0.00000
 355,0.00000033,0.00000115,-0.00000811,0.00000115,-0.00000245,0.0000055
 9,0.00000092,-0.00000004,-0.00000029,0.00000169,-0.00000028,0.00000145
 ,0.00000253,0.00000025,0.00000015,-0.00000137,0.00000113,-0.00000365,-
 0.00000120,-0.00000007,0.00000077,-0.00000162,0.00000016,-0.00000085,-
 0.00003594,0.00001146,0.00001686,0.00000227,-0.00000178,-0.00002038,0.
 00008713,-0.00001222,-0.00001345,0.00000446,-0.00000023,-0.00000318,0.
 00004027,-0.00001152,-0.00002145,0.00000676,0.00000780,0.00002400,-0.0
 0020250,-0.00006612,0.00010411,0.00002432,0.00003538,0.00019826,0.0000
 3455,0.00004105,-0.00003344,0.00010360,-0.00001356,-0.00012586,-0.0000
 2782,-0.00029287,-0.00031772,0.00002223,0.00024751,0.00018653,-0.01082
 029,-0.00949847,0.01049378,0.00005995,-0.00006402,0.00000465,-0.000563
 12,-0.00079217,0.00114507,0.00000354,-0.00001071,-0.00003927,0.0002229
 9,0.00020921,0.00005414,0.09030966,0.08723947,-0.13302745,0.00480537,0
 .00006467,-0.00171391,0.01707830,0.01703371,-0.01332363,-0.10118057,-0
 .09412342,0.13639342,-0.00001163,0.00000618,-0.00000719,0.00000739,0.0
 0000540,0.00000269,-0.00005274,0.00001748,0.00000142,0.00001938,-0.000
 01062,0.00003703,0.00000045,0.00001037,-0.00001972,0.00000532,-0.00000
 020,-0.00000501,0.00000189,-0.00000174,-0.00000057,0.00000115,0.000000
 59,-0.00000326,0.00000419,-0.00003629,0.00001257,-0.00001158,-0.000002
 62,-0.00001549,0.00000784,0.00000105,-0.00000499,0.00006964,-0.0000331
 9,-0.00004120,-0.00000227,-0.00003441,0.00006824,-0.00021295,0.0001395
 2,-0.00007611,-0.00000302,0.00000621,0.00000523,-0.00006118,0.00011151
 ,-0.00000331,-0.00003224,-0.00015654,-0.00020074,0.00073796,-0.0007191
 6,0.00035090,-0.00120632,-0.00000307,0.00020599,-0.00025873,-0.0003338
 7,0.00015722,-0.00236316,-0.00015403,0.00450041,0.00007891,0.00119785,
 -0.00060375,-0.00348838,0.00294798,0.00232324,0.00016353,-0.00015560,-
 0.00009334,0.00366987,-0.02391571,0.01057592,0.00469124,0.02376118,-0.
 01106950,0.00029481,-0.00056666,-0.00201080,-0.05472648,0.00130163,0.0
 0867465,-0.00026579,-0.00014944,-0.00009558,0.00148717,-0.00124776,-0.
 00140506,0.00008493,-0.00000580,0.00005378,0.00000410,-0.00002146,0.00
 001696,0.05141019,-0.00000923,0.00000133,-0.00000790,0.00000462,-0.000
 00223,0.00000998,-0.00004065,-0.00000056,-0.00001185,0.00002128,-0.000
 00469,0.00003095,-0.00000069,0.00000640,-0.00001999,0.00000452,0.00000
 237,-0.00000368,-0.00000081,0.00000060,-0.00000070,-0.00000120,0.00000
 104,-0.00000220,0.00000062,-0.00001153,0.00002622,-0.00000929,0.000004
 04,-0.00001038,0.00000718,0.00000202,-0.00000271,0.00006827,-0.0000358
 3,-0.00002030,-0.00000517,0.00000218,0.00004278,-0.00021838,0.00004085
 ,-0.00003197,-0.00000904,0.00000204,0.00000188,-0.00007946,0.00005131,
 0.00001578,-0.00011579,-0.00013527,-0.00017845,0.00064097,0.00002897,0
 .00005212,0.00038903,0.00036970,-0.00072111,-0.00011621,-0.00012030,-0
 .00000437,-0.00052090,0.00255376,0.00250895,-0.00023184,-0.00065033,0.
 00041986,0.00390884,-0.00005166,0.00049553,-0.00002381,0.00003885,0.00
 005418,0.00115568,-0.00404508,0.00248360,-0.00316105,-0.01342694,0.009
 67774,-0.00095012,-0.00000031,-0.00173267,0.00294440,-0.28890451,0.116
 49626,0.00019000,0.00007175,-0.00040271,-0.00167442,0.00079312,-0.0009
 8400,-0.00020192,0.00008674,-0.00001705,0.00003880,-0.00001249,-0.0000
 0230,-0.00199124,0.30333516,-0.00000112,0.00000115,-0.00000265,0.00000
 259,-0.00000936,0.00000871,-0.00000942,-0.00000557,-0.00000813,0.00001
 842,-0.00000897,-0.00002014,0.00000516,-0.00000385,0.00000403,0.000003
 54,0.00000043,-0.00000327,0.00000057,0.00000067,0.00000197,0.00000269,
 0.00000121,0.00000037,0.00000168,0.00000920,0.00001611,-0.00000537,0.0
 0000384,-0.00000249,-0.00000010,0.00000208,-0.00000114,-0.00004870,0.0
 0003082,0.00007565,0.00000866,0.00000969,-0.00004576,0.00018199,-0.000
 12806,-0.00005082,0.00000277,-0.00000351,-0.00000995,0.00004767,-0.000
 07269,-0.00007110,-0.00022113,-0.00016436,-0.00046910,-0.00034736,0.00
 063999,0.00063075,0.00011668,-0.00060352,-0.00057701,0.00007003,0.0000
 8766,-0.00032821,0.00466047,0.00243045,0.00414947,0.00008019,-0.000230
 91,0.00009154,0.00185321,0.00088859,0.00356265,0.00015043,-0.00009132,
 -0.00001789,-0.00121617,0.01377805,-0.00328438,0.00128613,-0.00225174,
 0.00491911,-0.00183115,-0.00188470,-0.00300574,0.00808791,0.11703754,-
 0.09163112,-0.00025527,-0.00025853,-0.00039670,-0.00118446,-0.00117475
 ,-0.00187507,-0.00016144,0.00010066,0.00000931,-0.00001183,0.00002555,
 0.00001275,-0.01130571,-0.12814773,0.08829240,0.00004044,0.00003163,-0
 .00007690,-0.00012609,0.00007597,-0.00012590,0.00011002,0.00021254,-0.
 00019164,0.00067010,-0.00055365,0.00088602,-0.00035632,0.00002039,0.00
 013040,0.00000802,-0.00000379,0.00003030,0.00000165,-0.00000167,-0.000
 01485,-0.00000937,0.00000458,-0.00000436,0.00004676,-0.00004218,0.0000
 2297,-0.00000310,-0.00000375,-0.00001307,0.00011651,0.00002225,-0.0000
 3156,-0.00346107,-0.00724090,0.00494928,-0.05224579,-0.03870491,0.0333
 3345,0.00208566,-0.00017202,0.00023829,0.00056887,-0.00129758,-0.00164
 345,-0.00657033,0.01846884,-0.01591010,0.00006631,0.00000059,-0.000026
 55,-0.00040857,0.00011775,-0.00419396,0.00000827,-0.00008018,0.0000955
 4,-0.00009462,0.00084362,0.00083701,0.00013285,-0.00013726,0.00003896,
 -0.00000403,-0.00001114,-0.00000537,0.00003005,-0.00004892,-0.00001418
 ,0.00000200,-0.00000548,-0.00000045,-0.00039502,0.00047848,-0.00011260
 ,-0.00003853,0.00005776,0.00001527,-0.00016381,-0.00011241,0.00027063,
 0.00009688,-0.00025641,0.00002767,-0.00002847,0.00002653,0.00000194,0.
 00007611,-0.00003575,-0.00001460,0.00000453,-0.00000461,0.00000230,0.0
 0000596,-0.00000018,-0.00000214,-0.00003272,-0.00000201,0.00001091,0.0
 6268219,0.00031799,0.00009465,-0.00030672,-0.00040325,0.00018435,-0.00
 037354,-0.00010358,0.00040606,0.00025173,0.00157474,0.00068460,0.00099
 043,-0.00073321,0.00036351,-0.00013789,0.00021900,-0.00023491,0.000385
 44,0.00002689,-0.00000095,-0.00000924,-0.00000188,-0.00001316,-0.00001
 167,0.00015119,-0.00016092,-0.00024434,-0.00003060,0.00000432,-0.00001
 543,0.00011005,-0.00000062,-0.00003533,-0.00859398,-0.02163192,0.01455
 766,-0.04446062,-0.22482193,0.11963282,0.00060364,0.00247738,-0.000475
 55,-0.00056204,-0.00291967,-0.00342793,0.00258513,0.00052582,0.0021665
 5,-0.00002767,0.00001026,0.00000848,-0.00027445,-0.00057317,0.00079354
 ,-0.00000996,0.00007136,0.00001335,0.00010200,-0.00014632,-0.00014865,
 -0.00004072,0.00013747,-0.00002201,-0.00000093,0.00000311,-0.00000219,
 -0.00001624,0.00002242,-0.00002993,-0.00000145,0.00000162,-0.00000043,
 0.00028395,-0.00033357,-0.00006407,0.00002870,-0.00004289,0.00003044,0
 .00022624,0.00016083,-0.00006525,-0.00009509,0.00012591,-0.00006844,0.
 00001248,-0.00000908,0.00000475,-0.00003741,0.00002237,0.00000883,-0.0
 0000196,0.00000188,-0.00000183,-0.00000322,0.00000102,0.00000160,0.000
 01264,0.00000176,-0.00000071,0.04777439,0.23910869,0.00018801,0.000000
 65,-0.00007640,-0.00016931,0.00009104,-0.00015243,0.00004337,0.0000249
 8,0.00020329,0.00041283,-0.00087815,0.00154350,-0.00008624,0.00005495,
 -0.00003799,0.00004280,-0.00006649,0.00017330,0.00001422,0.00000007,-0
 .00000570,0.00000022,0.00003016,0.00000581,0.00003773,-0.00010441,-0.0
 0016701,-0.00000811,-0.00001206,-0.00000569,0.00003634,-0.00002247,-0.
 00003321,-0.00555956,-0.01711187,0.01007406,0.03864286,0.12390895,-0.1
 3383359,-0.00003153,0.00159519,0.00120683,-0.00069754,-0.00341484,-0.0
 0185736,-0.00585701,0.00908528,-0.00698589,0.00002287,-0.00000189,0.00
 001086,-0.00007188,-0.00136754,-0.00179959,0.00005197,-0.00006358,0.00
 004434,0.00008647,0.00039870,0.00033509,-0.00007042,0.00010817,0.00019
 665,-0.00001426,-0.00000429,-0.00000204,-0.00005346,-0.00006653,0.0000
 1692,-0.00000180,0.00000704,-0.00000288,-0.00005027,0.00011099,0.00006
 707,0.00007570,0.00008284,-0.00007187,0.00000964,0.00005201,-0.0000024
 1,-0.00000852,0.00001614,0.00003343,0.00004482,-0.00002564,-0.00000947
 ,-0.00013170,-0.00005110,0.00007389,-0.00000186,0.00000791,-0.00000339
 ,-0.00000586,-0.00000222,0.00000457,-0.00001047,-0.00000496,0.00002068
 ,-0.03083774,-0.12913518,0.14056221,0.00006967,-0.00000092,0.00000012,
 -0.00002873,-0.00000011,-0.00005021,-0.00000822,-0.00001330,0.00005615
 ,0.00025659,0.00013299,0.00014799,-0.00005703,0.00000661,-0.00026809,-
 0.00002662,-0.00004740,0.00006232,-0.00000232,0.00000394,0.00000088,-0
 .00000909,0.00001381,-0.00000495,0.00000906,-0.00000060,0.00001298,-0.
 00000217,0.00000356,-0.00000209,-0.00000642,-0.00006037,-0.00004584,0.
 00557374,-0.00098030,-0.00435560,-0.19772343,0.03675754,0.13885910,0.0
 0238311,-0.00225085,-0.00137024,0.00058522,0.00027473,0.00008076,-0.01
 614586,0.00711804,0.00643545,0.00003582,0.00001362,0.00002406,-0.00248
 130,-0.00148801,-0.00285199,0.00020127,-0.00009110,0.00011055,0.000128
 77,0.00052491,0.00008578,-0.00025971,0.00045609,0.00063945,-0.00002432
 ,-0.00000679,-0.00000579,-0.00011936,-0.00015008,0.00003539,-0.0000060
 9,0.00001518,-0.00000149,0.00002824,0.00013528,-0.00002262,0.00014247,
 0.00012743,-0.00013415,0.00000789,0.00000869,0.00001962,-0.00009821,-0
 .00000042,-0.00002539,0.00009167,-0.00005059,-0.00001137,-0.00022774,-
 0.00007042,0.00014790,-0.00000429,0.00001397,-0.00000810,-0.00000970,-
 0.00000321,0.00000660,-0.00001079,-0.00001100,0.00000755,-0.00281535,0
 .00136923,0.00395767,0.21055324,-0.00015938,-0.00009357,0.00018936,0.0
 0025977,-0.00005565,0.00011874,-0.00008119,0.00025884,-0.00020631,-0.0
 0006707,-0.00042907,0.00071781,0.00023218,0.00024253,-0.00013251,-0.00
 020436,0.00007648,-0.00012542,0.00000096,-0.00000936,0.00002321,0.0000
 0260,0.00002353,-0.00001635,0.00003639,-0.00006044,-0.00004064,0.00000
 139,-0.00002024,0.00000276,-0.00016911,-0.00016022,-0.00002525,0.01876
 159,-0.00266306,-0.01317016,0.03596269,-0.05688157,-0.03159356,0.00298
 482,-0.00524613,-0.00397626,0.00022500,0.00064543,0.00079574,0.0038019
 6,-0.00067355,-0.00307678,-0.00002849,-0.00000630,-0.00000192,-0.00101
 118,-0.00033539,-0.00174840,-0.00012477,0.00013781,-0.00005372,0.00006
 894,-0.00048136,0.00027007,0.00033710,-0.00002720,-0.00015600,0.000013
 04,0.00000640,-0.00000352,0.00005660,0.00008929,-0.00004666,0.00000080
 ,-0.00000673,0.00000096,0.00018825,-0.00036995,0.00007832,-0.00006487,
 -0.00010575,0.00006922,0.00006530,0.00006865,-0.00003085,-0.00000355,0
 .00007227,-0.00005822,-0.00003945,0.00002199,0.00001006,0.00009967,0.0
 0005699,-0.00006767,0.00000213,-0.00000575,0.00000331,0.00000308,0.000
 00198,-0.00000203,0.00001983,0.00000774,-0.00000729,-0.01942051,0.0064
 7973,0.01675812,-0.04175016,0.05944161,-0.00024133,-0.00010521,0.00018
 557,0.00032398,-0.00015331,0.00017119,-0.00007410,0.00022349,-0.000498
 18,0.00031227,-0.00018028,0.00070575,0.00012366,0.00018048,0.00002058,
 -0.00032883,0.00025415,-0.00021499,-0.00001573,-0.00001570,0.00001341,
 -0.00001343,0.00001007,-0.00001420,-0.00004171,0.00002831,0.00016717,-
 0.00000032,0.00000205,-0.00000076,-0.00014672,-0.00027429,0.00005717,0
 .01352796,0.00084195,-0.00905426,0.13259191,-0.03357989,-0.15682962,0.
 00204023,-0.00505530,-0.00110376,-0.00039330,0.00018847,0.00084481,-0.
 01400297,0.00640822,0.00793938,0.00003245,0.00001851,0.00005104,-0.004
 60001,-0.00086786,-0.00396269,0.00019519,-0.00010078,0.00010196,0.0003
 1053,0.00046536,0.00032803,0.00002073,0.00047900,0.00092037,-0.0000215
 7,-0.00001229,-0.00000970,-0.00011983,-0.00017429,0.00000664,-0.000003
 72,0.00000957,0.00000024,-0.00016633,0.00026286,0.00002545,0.00005554,
 0.00015190,-0.00010240,-0.00004831,-0.00006856,0.00005374,-0.00000963,
 -0.00006863,-0.00002807,0.00006035,-0.00003287,-0.00000573,-0.00014262
 ,-0.00006611,0.00010644,-0.00000188,0.00000861,-0.00000744,-0.00000411
 ,-0.00000141,0.00000361,-0.00001443,-0.00000876,0.00000518,0.01232847,
 -0.00426928,-0.00952560,-0.14153240,0.03550182,0.16964966\\-0.00000250
 ,-0.00000104,0.00000136,0.00000283,-0.00000035,0.00000114,-0.00000173,
 0.00000181,-0.00000080,0.00000241,-0.00000065,-0.00000202,0.00000361,0
 .00000150,0.00000312,-0.00000048,-0.00000108,-0.00000275,0.00000040,-0
 .00000036,-0.00000067,0.00000003,-0.00000050,0.00000028,0.00000083,-0.
 00000066,0.00000028,0.00000022,-0.00000061,-0.00000039,-0.00000120,-0.
 00000063,0.00000004,0.00001040,-0.00000717,-0.00000721,0.00000013,0.00
 000308,0.00000328,-0.00000937,0.00000198,0.00000608,-0.00000305,0.0000
 0049,0.00000018,-0.00000290,0.00000004,-0.00000267,-0.00000072,0.00000
 027,0.00000027,0.00000426,0.00000305,-0.00000219,0.00000190,0.00000083
 ,0.00000028,-0.00000021,-0.00000088,0.00000079,-0.00000397,-0.00000284
 ,-0.00000077,-0.00000077,-0.00000016,0.00000043,0.00000049,0.00000082,
 0.00000067,0.00000047,0.00000035,0.00000010,0.00000201,-0.00000068,0.0
 0000235,0.00000078,-0.00000079,0.00000151,-0.00000051,0.00000086,-0.00
 000131,-0.00000152,0.00000082,-0.00000008,0.00000042,-0.00000046,0.000
 00083,-0.00000015,0.00000063,-0.00000082,0.00000016,0.00000043,0.00000
 031,0.00000006,0.00000017,0.00000046,-0.00000053,0.00000003,0.00000014
 ,-0.00000081,0.00000086,-0.00000117,-0.00000095,0.00000081,-0.00000102
 \\\@
 The archive entry for this job was punched.


 A DANDELION FROM A LOVER MEANS MORE THAN AN ORCHID FROM A FRIEND.
 Job cpu time:       0 days  3 hours 30 minutes 25.9 seconds.
 Elapsed time:       0 days  0 hours 13 minutes 12.9 seconds.
 File lengths (MBytes):  RWF=    760 Int=      0 D2E=      0 Chk=     19 Scr=      1
 Normal termination of Gaussian 16 at Thu May 22 11:41:21 2025.
