 Entering Gaussian System, Link 0=g16
 Initial command:
 /opt/packages/gaussian/g16RevC.01/g16/l1.exe "/ocean/projects/che200051p/zlab/tmp/Gau-29905.inp" -scrdir="/ocean/projects/che200051p/zlab/tmp/"
 Entering Link 1 = /opt/packages/gaussian/g16RevC.01/g16/l1.exe PID=     29906.
  
 Copyright (c) 1988-2019, Gaussian, Inc.  All Rights Reserved.
  
 This is part of the Gaussian(R) 16 program.  It is based on
 the Gaussian(R) 09 system (copyright 2009, Gaussian, Inc.),
 the Gaussian(R) 03 system (copyright 2003, Gaussian, Inc.),
 the Gaussian(R) 98 system (copyright 1998, Gaussian, Inc.),
 the Gaussian(R) 94 system (copyright 1995, Gaussian, Inc.),
 the Gaussian 92(TM) system (copyright 1992, Gaussian, Inc.),
 the Gaussian 90(TM) system (copyright 1990, Gaussian, Inc.),
 the Gaussian 88(TM) system (copyright 1988, Gaussian, Inc.),
 the Gaussian 86(TM) system (copyright 1986, Carnegie Mellon
 University), and the Gaussian 82(TM) system (copyright 1983,
 Carnegie Mellon University). Gaussian is a federally registered
 trademark of Gaussian, Inc.
  
 This software contains proprietary and confidential information,
 including trade secrets, belonging to Gaussian, Inc.
  
 This software is provided under written license and may be
 used, copied, transmitted, or stored only in accord with that
 written license.
  
 The following legend is applicable only to US Government
 contracts under FAR:
  
                    RESTRICTED RIGHTS LEGEND
  
 Use, reproduction and disclosure by the US Government is
 subject to restrictions as set forth in subparagraphs (a)
 and (c) of the Commercial Computer Software - Restricted
 Rights clause in FAR 52.227-19.
  
 Gaussian, Inc.
 340 Quinnipiac St., Bldg. 40, Wallingford CT 06492
  
  
 ---------------------------------------------------------------
 Warning -- This program may not be used in any manner that
 competes with the business of Gaussian, Inc. or will provide
 assistance to any competitor of Gaussian, Inc.  The licensee
 of this program is prohibited from giving any competitor of
 Gaussian, Inc. access to this program.  By using this program,
 the user acknowledges that Gaussian, Inc. is engaged in the
 business of creating and licensing software in the field of
 computational chemistry and represents and warrants to the
 licensee that it is not a competitor of Gaussian, Inc. and that
 it will not use this program in any manner prohibited above.
 ---------------------------------------------------------------
  

 Cite this work as:
 Gaussian 16, Revision C.01,
 M. J. Frisch, G. W. Trucks, H. B. Schlegel, G. E. Scuseria, 
 M. A. Robb, J. R. Cheeseman, G. Scalmani, V. Barone, 
 G. A. Petersson, H. Nakatsuji, X. Li, M. Caricato, A. V. Marenich, 
 J. Bloino, B. G. Janesko, R. Gomperts, B. Mennucci, H. P. Hratchian, 
 J. V. Ortiz, A. F. Izmaylov, J. L. Sonnenberg, D. Williams-Young, 
 F. Ding, F. Lipparini, F. Egidi, J. Goings, B. Peng, A. Petrone, 
 T. Henderson, D. Ranasinghe, V. G. Zakrzewski, J. Gao, N. Rega, 
 G. Zheng, W. Liang, M. Hada, M. Ehara, K. Toyota, R. Fukuda, 
 J. Hasegawa, M. Ishida, T. Nakajima, Y. Honda, O. Kitao, H. Nakai, 
 T. Vreven, K. Throssell, J. A. Montgomery, Jr., J. E. Peralta, 
 F. Ogliaro, M. J. Bearpark, J. J. Heyd, E. N. Brothers, K. N. Kudin, 
 V. N. Staroverov, T. A. Keith, R. Kobayashi, J. Normand, 
 K. Raghavachari, A. P. Rendell, J. C. Burant, S. S. Iyengar, 
 J. Tomasi, M. Cossi, J. M. Millam, M. Klene, C. Adamo, R. Cammi, 
 J. W. Ochterski, R. L. Martin, K. Morokuma, O. Farkas, 
 J. B. Foresman, and D. J. Fox, Gaussian, Inc., Wallingford CT, 2019.
 
 ******************************************
 Gaussian 16:  ES64L-G16RevC.01  3-Jul-2019
                 9-May-2025 
 ******************************************
 %NProcShared=16
 Will use up to   16 processors via shared memory.
 %Chk=sto_lr_adduct_OBn2.chk
 -----------------------------
 #n B3LYP/6-31+G(d,p) Opt Freq
 -----------------------------
 1/18=20,19=15,26=3,38=1/1,3;
 2/9=110,12=2,17=6,18=5,40=1/2;
 3/5=1,6=6,7=111,11=2,25=1,30=1,71=1,74=-5/1,2,3;
 4//1;
 5/5=2,38=5/2;
 6/7=2,8=2,9=2,10=2,28=1/1;
 7//1,2,3,16;
 1/18=20,19=15,26=3/3(2);
 2/9=110/2;
 99//99;
 2/9=110/2;
 3/5=1,6=6,7=111,11=2,25=1,30=1,71=1,74=-5/1,2,3;
 4/5=5,16=3,69=1/1;
 5/5=2,38=5/2;
 7//1,2,3,16;
 1/18=20,19=15,26=3/3(-5);
 2/9=110/2;
 6/7=2,8=2,9=2,10=2,19=2,28=1/1;
 99/9=1/99;
 ------------------------
 sto LR adduct O benzylic
 ------------------------
 Symbolic Z-matrix:
 Charge =  0 Multiplicity = 1
 C
 C                    1     1.38684 
 C                    2     1.3961   1     119.90461 
 C                    3     1.40825  2     121.88687  1     0.59267  0
 C                    4     1.40436  3     117.19075  2     0.68023  0
 C                    1     1.39288  2     119.53262  3     358.92672  0
 H                    1     1.08663  2     119.8561  3     178.88689  0
 H                    6     1.08711  1     119.39786  2     179.78521  0
 H                    3     1.08536  2     115.87984  1     181.74794  0
 H                    2     1.08753  1     120.40521  3     180.72359  0
 H                    5     1.08823  4     120.38698  3     180.12027  0
 C                    4     1.52961  3     123.06981  2     185.01177  0
 C                    12    1.54446  4     115.41968  3     14.90236  0
 O                    12    1.44579  4     113.21759  3     246.93303  0
 H                    12    1.09842  4     105.77498  3     131.83273  0
 S                    13    1.82941  12    106.27583  4     279.51783  0
 H                    16    2.84783  13    121.03597  12    256.20235  0
 P                    14    1.64389  12    114.75901  4     97.80033  0
 C                    17    1.08966  16    97.89849  13    22.83589  0
 S                    18    1.94398  14    111.85772  12    236.1662  0
 C                    19    1.40843  17    120.31616  16    40.39016  0
 H                    19    2.13505  17    91.55775  16    224.14661  0
 C                    22    1.08467  19    34.95613  17    179.83496  0
 H                    22    2.25229  19    144.65005  17    163.58091  0
 C                    21    1.39977  19    118.07082  17    175.87401  0
 C                    23    1.39028  22    121.83614  19    181.13344  0
 H                    25    1.08769  21    120.55283  19    183.96945  0
 C                    26    1.39703  23    119.41336  22    183.87364  0
 C                    24    1.09489  22    98.18728  19    344.22649  0
 O                    26    1.36854  23    123.82144  22    3.21045  0
 H                    29    1.0971   24    110.67186  22    295.20241  0
 H                    29    1.09398  24    107.67686  22    177.86544  0
 H                    28    1.08833  26    119.30376  23    175.78238  0
 H                    13    1.09538  12    109.26975  4     164.66523  0
 H                    13    1.09244  12    113.66237  4     43.08236  0
 

 GradGradGradGradGradGradGradGradGradGradGradGradGradGradGradGradGradGrad
 Berny optimization.
 Initialization pass.
                           ----------------------------
                           !    Initial Parameters    !
                           ! (Angstroms and Degrees)  !
 --------------------------                            --------------------------
 ! Name  Definition              Value          Derivative Info.                !
 --------------------------------------------------------------------------------
 ! R1    R(1,2)                  1.3868         estimate D2E/DX2                !
 ! R2    R(1,6)                  1.3929         estimate D2E/DX2                !
 ! R3    R(1,7)                  1.0866         estimate D2E/DX2                !
 ! R4    R(2,3)                  1.3961         estimate D2E/DX2                !
 ! R5    R(2,10)                 1.0875         estimate D2E/DX2                !
 ! R6    R(3,4)                  1.4083         estimate D2E/DX2                !
 ! R7    R(3,9)                  1.0854         estimate D2E/DX2                !
 ! R8    R(4,5)                  1.4044         estimate D2E/DX2                !
 ! R9    R(4,12)                 1.5296         estimate D2E/DX2                !
 ! R10   R(5,6)                  1.4019         estimate D2E/DX2                !
 ! R11   R(5,11)                 1.0882         estimate D2E/DX2                !
 ! R12   R(6,8)                  1.0871         estimate D2E/DX2                !
 ! R13   R(12,13)                1.5445         estimate D2E/DX2                !
 ! R14   R(12,14)                1.4458         estimate D2E/DX2                !
 ! R15   R(12,15)                1.0984         estimate D2E/DX2                !
 ! R16   R(13,16)                1.8294         estimate D2E/DX2                !
 ! R17   R(13,34)                1.0954         estimate D2E/DX2                !
 ! R18   R(13,35)                1.0924         estimate D2E/DX2                !
 ! R19   R(14,18)                1.6439         estimate D2E/DX2                !
 ! R20   R(16,18)                2.1215         estimate D2E/DX2                !
 ! R21   R(17,19)                1.0897         estimate D2E/DX2                !
 ! R22   R(18,20)                1.944          estimate D2E/DX2                !
 ! R23   R(18,21)                1.8096         estimate D2E/DX2                !
 ! R24   R(19,21)                1.4084         estimate D2E/DX2                !
 ! R25   R(19,23)                1.3924         estimate D2E/DX2                !
 ! R26   R(21,25)                1.3998         estimate D2E/DX2                !
 ! R27   R(22,23)                1.0847         estimate D2E/DX2                !
 ! R28   R(23,26)                1.3903         estimate D2E/DX2                !
 ! R29   R(24,29)                1.0949         estimate D2E/DX2                !
 ! R30   R(25,27)                1.0877         estimate D2E/DX2                !
 ! R31   R(25,28)                1.4029         estimate D2E/DX2                !
 ! R32   R(26,28)                1.397          estimate D2E/DX2                !
 ! R33   R(26,30)                1.3685         estimate D2E/DX2                !
 ! R34   R(28,33)                1.0883         estimate D2E/DX2                !
 ! R35   R(29,30)                1.4292         estimate D2E/DX2                !
 ! R36   R(29,31)                1.0971         estimate D2E/DX2                !
 ! R37   R(29,32)                1.094          estimate D2E/DX2                !
 ! A1    A(2,1,6)              119.5326         estimate D2E/DX2                !
 ! A2    A(2,1,7)              119.8561         estimate D2E/DX2                !
 ! A3    A(6,1,7)              120.6113         estimate D2E/DX2                !
 ! A4    A(1,2,3)              119.9046         estimate D2E/DX2                !
 ! A5    A(1,2,10)             120.4052         estimate D2E/DX2                !
 ! A6    A(3,2,10)             119.6862         estimate D2E/DX2                !
 ! A7    A(2,3,4)              121.8869         estimate D2E/DX2                !
 ! A8    A(2,3,9)              115.8798         estimate D2E/DX2                !
 ! A9    A(4,3,9)              122.2228         estimate D2E/DX2                !
 ! A10   A(3,4,5)              117.1908         estimate D2E/DX2                !
 ! A11   A(3,4,12)             123.0698         estimate D2E/DX2                !
 ! A12   A(5,4,12)             119.599          estimate D2E/DX2                !
 ! A13   A(4,5,6)              120.9537         estimate D2E/DX2                !
 ! A14   A(4,5,11)             120.387          estimate D2E/DX2                !
 ! A15   A(6,5,11)             118.6404         estimate D2E/DX2                !
 ! A16   A(1,6,5)              120.5115         estimate D2E/DX2                !
 ! A17   A(1,6,8)              119.3979         estimate D2E/DX2                !
 ! A18   A(5,6,8)              120.0888         estimate D2E/DX2                !
 ! A19   A(4,12,13)            115.4197         estimate D2E/DX2                !
 ! A20   A(4,12,14)            113.2176         estimate D2E/DX2                !
 ! A21   A(4,12,15)            105.775          estimate D2E/DX2                !
 ! A22   A(13,12,14)           109.9656         estimate D2E/DX2                !
 ! A23   A(13,12,15)           106.0788         estimate D2E/DX2                !
 ! A24   A(14,12,15)           105.5449         estimate D2E/DX2                !
 ! A25   A(12,13,16)           106.2758         estimate D2E/DX2                !
 ! A26   A(12,13,34)           109.2698         estimate D2E/DX2                !
 ! A27   A(12,13,35)           113.6624         estimate D2E/DX2                !
 ! A28   A(16,13,34)           106.7591         estimate D2E/DX2                !
 ! A29   A(16,13,35)           111.9389         estimate D2E/DX2                !
 ! A30   A(34,13,35)           108.6855         estimate D2E/DX2                !
 ! A31   A(12,14,18)           114.759          estimate D2E/DX2                !
 ! A32   A(13,16,18)            89.5245         estimate D2E/DX2                !
 ! A33   A(14,18,16)            99.1455         estimate D2E/DX2                !
 ! A34   A(14,18,20)           111.8577         estimate D2E/DX2                !
 ! A35   A(14,18,21)           104.5422         estimate D2E/DX2                !
 ! A36   A(16,18,20)           120.3164         estimate D2E/DX2                !
 ! A37   A(16,18,21)            99.2953         estimate D2E/DX2                !
 ! A38   A(20,18,21)           118.8255         estimate D2E/DX2                !
 ! A39   A(17,19,21)           120.3162         estimate D2E/DX2                !
 ! A40   A(17,19,23)           118.0648         estimate D2E/DX2                !
 ! A41   A(21,19,23)           121.504          estimate D2E/DX2                !
 ! A42   A(18,21,19)           118.4342         estimate D2E/DX2                !
 ! A43   A(18,21,25)           123.3301         estimate D2E/DX2                !
 ! A44   A(19,21,25)           118.0708         estimate D2E/DX2                !
 ! A45   A(19,23,22)           118.5367         estimate D2E/DX2                !
 ! A46   A(19,23,26)           119.6176         estimate D2E/DX2                !
 ! A47   A(22,23,26)           121.8361         estimate D2E/DX2                !
 ! A48   A(21,25,27)           120.5528         estimate D2E/DX2                !
 ! A49   A(21,25,28)           119.9731         estimate D2E/DX2                !
 ! A50   A(27,25,28)           119.4426         estimate D2E/DX2                !
 ! A51   A(23,26,28)           119.4134         estimate D2E/DX2                !
 ! A52   A(23,26,30)           123.8214         estimate D2E/DX2                !
 ! A53   A(28,26,30)           116.7621         estimate D2E/DX2                !
 ! A54   A(25,28,26)           120.7174         estimate D2E/DX2                !
 ! A55   A(25,28,33)           119.9186         estimate D2E/DX2                !
 ! A56   A(26,28,33)           119.3038         estimate D2E/DX2                !
 ! A57   A(24,29,30)           111.0172         estimate D2E/DX2                !
 ! A58   A(24,29,31)           110.6719         estimate D2E/DX2                !
 ! A59   A(24,29,32)           107.6769         estimate D2E/DX2                !
 ! A60   A(30,29,31)           111.6303         estimate D2E/DX2                !
 ! A61   A(30,29,32)           108.0766         estimate D2E/DX2                !
 ! A62   A(31,29,32)           107.5885         estimate D2E/DX2                !
 ! A63   A(26,30,29)           114.1974         estimate D2E/DX2                !
 ! D1    D(6,1,2,3)             -1.0733         estimate D2E/DX2                !
 ! D2    D(6,1,2,10)           179.6503         estimate D2E/DX2                !
 ! D3    D(7,1,2,3)            178.8869         estimate D2E/DX2                !
 ! D4    D(7,1,2,10)            -0.3895         estimate D2E/DX2                !
 ! D5    D(2,1,6,5)              0.2748         estimate D2E/DX2                !
 ! D6    D(2,1,6,8)            179.7852         estimate D2E/DX2                !
 ! D7    D(7,1,6,5)           -179.685          estimate D2E/DX2                !
 ! D8    D(7,1,6,8)             -0.1747         estimate D2E/DX2                !
 ! D9    D(1,2,3,4)              0.5927         estimate D2E/DX2                !
 ! D10   D(1,2,3,9)           -178.2521         estimate D2E/DX2                !
 ! D11   D(10,2,3,4)           179.8743         estimate D2E/DX2                !
 ! D12   D(10,2,3,9)             1.0296         estimate D2E/DX2                !
 ! D13   D(2,3,4,5)              0.6802         estimate D2E/DX2                !
 ! D14   D(2,3,4,12)          -174.9882         estimate D2E/DX2                !
 ! D15   D(9,3,4,5)            179.4516         estimate D2E/DX2                !
 ! D16   D(9,3,4,12)             3.7831         estimate D2E/DX2                !
 ! D17   D(3,4,5,6)             -1.4827         estimate D2E/DX2                !
 ! D18   D(3,4,5,11)          -179.8797         estimate D2E/DX2                !
 ! D19   D(12,4,5,6)           174.343          estimate D2E/DX2                !
 ! D20   D(12,4,5,11)           -4.0541         estimate D2E/DX2                !
 ! D21   D(3,4,12,13)           14.9024         estimate D2E/DX2                !
 ! D22   D(3,4,12,14)         -113.067          estimate D2E/DX2                !
 ! D23   D(3,4,12,15)          131.8327         estimate D2E/DX2                !
 ! D24   D(5,4,12,13)         -160.6663         estimate D2E/DX2                !
 ! D25   D(5,4,12,14)           71.3643         estimate D2E/DX2                !
 ! D26   D(5,4,12,15)          -43.736          estimate D2E/DX2                !
 ! D27   D(4,5,6,1)              1.0389         estimate D2E/DX2                !
 ! D28   D(4,5,6,8)           -178.4681         estimate D2E/DX2                !
 ! D29   D(11,5,6,1)           179.4634         estimate D2E/DX2                !
 ! D30   D(11,5,6,8)            -0.0436         estimate D2E/DX2                !
 ! D31   D(4,12,13,16)         -80.4822         estimate D2E/DX2                !
 ! D32   D(4,12,13,34)         164.6652         estimate D2E/DX2                !
 ! D33   D(4,12,13,35)          43.0824         estimate D2E/DX2                !
 ! D34   D(14,12,13,16)         49.0899         estimate D2E/DX2                !
 ! D35   D(14,12,13,34)        -65.7627         estimate D2E/DX2                !
 ! D36   D(14,12,13,35)        172.6544         estimate D2E/DX2                !
 ! D37   D(15,12,13,16)        162.7588         estimate D2E/DX2                !
 ! D38   D(15,12,13,34)         47.9062         estimate D2E/DX2                !
 ! D39   D(15,12,13,35)        -73.6767         estimate D2E/DX2                !
 ! D40   D(4,12,14,18)          97.8003         estimate D2E/DX2                !
 ! D41   D(13,12,14,18)        -32.951          estimate D2E/DX2                !
 ! D42   D(15,12,14,18)       -146.9621         estimate D2E/DX2                !
 ! D43   D(12,13,16,18)        -38.0491         estimate D2E/DX2                !
 ! D44   D(34,13,16,18)         78.5            estimate D2E/DX2                !
 ! D45   D(35,13,16,18)       -162.6838         estimate D2E/DX2                !
 ! D46   D(12,14,18,16)          4.1512         estimate D2E/DX2                !
 ! D47   D(12,14,18,20)       -123.8338         estimate D2E/DX2                !
 ! D48   D(12,14,18,21)        106.3192         estimate D2E/DX2                !
 ! D49   D(13,16,18,14)         19.8399         estimate D2E/DX2                !
 ! D50   D(13,16,18,20)        141.9109         estimate D2E/DX2                !
 ! D51   D(13,16,18,21)        -86.6627         estimate D2E/DX2                !
 ! D52   D(14,18,21,19)       -145.9762         estimate D2E/DX2                !
 ! D53   D(14,18,21,25)         29.26           estimate D2E/DX2                !
 ! D54   D(16,18,21,19)        -43.9216         estimate D2E/DX2                !
 ! D55   D(16,18,21,25)        131.3147         estimate D2E/DX2                !
 ! D56   D(20,18,21,19)         88.4478         estimate D2E/DX2                !
 ! D57   D(20,18,21,25)        -96.316          estimate D2E/DX2                !
 ! D58   D(17,19,21,18)         -8.6363         estimate D2E/DX2                !
 ! D59   D(17,19,21,25)        175.874          estimate D2E/DX2                !
 ! D60   D(23,19,21,18)        167.3893         estimate D2E/DX2                !
 ! D61   D(23,19,21,25)         -8.1004         estimate D2E/DX2                !
 ! D62   D(17,19,23,22)         -0.187          estimate D2E/DX2                !
 ! D63   D(17,19,23,26)        178.7054         estimate D2E/DX2                !
 ! D64   D(21,19,23,22)       -176.299          estimate D2E/DX2                !
 ! D65   D(21,19,23,26)          2.5934         estimate D2E/DX2                !
 ! D66   D(18,21,25,27)          8.717          estimate D2E/DX2                !
 ! D67   D(18,21,25,28)       -169.2328         estimate D2E/DX2                !
 ! D68   D(19,21,25,27)       -176.0306         estimate D2E/DX2                !
 ! D69   D(19,21,25,28)          6.0197         estimate D2E/DX2                !
 ! D70   D(19,23,26,28)          5.019          estimate D2E/DX2                !
 ! D71   D(19,23,26,30)       -175.6442         estimate D2E/DX2                !
 ! D72   D(22,23,26,28)       -176.1264         estimate D2E/DX2                !
 ! D73   D(22,23,26,30)          3.2104         estimate D2E/DX2                !
 ! D74   D(21,25,28,26)          1.4109         estimate D2E/DX2                !
 ! D75   D(21,25,28,33)        178.5687         estimate D2E/DX2                !
 ! D76   D(27,25,28,26)       -176.5616         estimate D2E/DX2                !
 ! D77   D(27,25,28,33)          0.5962         estimate D2E/DX2                !
 ! D78   D(23,26,28,25)         -7.0425         estimate D2E/DX2                !
 ! D79   D(23,26,28,33)        175.7824         estimate D2E/DX2                !
 ! D80   D(30,26,28,25)        173.5746         estimate D2E/DX2                !
 ! D81   D(30,26,28,33)         -3.6006         estimate D2E/DX2                !
 ! D82   D(23,26,30,29)         34.5026         estimate D2E/DX2                !
 ! D83   D(28,26,30,29)       -146.1444         estimate D2E/DX2                !
 ! D84   D(24,29,30,26)        -77.2326         estimate D2E/DX2                !
 ! D85   D(31,29,30,26)         46.7663         estimate D2E/DX2                !
 ! D86   D(32,29,30,26)        164.8899         estimate D2E/DX2                !
 --------------------------------------------------------------------------------
 Trust Radius=3.00D-01 FncErr=1.00D-07 GrdErr=1.00D-06 EigMax=2.50D+02 EigMin=1.00D-04
 Number of steps in this run=    196 maximum allowed number of steps=    210.
 GradGradGradGradGradGradGradGradGradGradGradGradGradGradGradGradGradGrad

                          Input orientation:                          
 ---------------------------------------------------------------------
 Center     Atomic      Atomic             Coordinates (Angstroms)
 Number     Number       Type             X           Y           Z
 ---------------------------------------------------------------------
      1          6           0        0.000000    0.000000    0.000000
      2          6           0        0.000000    0.000000    1.386840
      3          6           0        1.210219    0.000000    2.082876
      4          6           0        2.451183    0.012369    1.417277
      5          6           0        2.426171    0.039659    0.013405
      6          6           0        1.211698    0.022701   -0.686577
      7          1           0       -0.942233   -0.018307   -0.540950
      8          1           0        1.209211    0.019103   -1.773678
      9          1           0        1.134266   -0.029786    3.165166
     10          1           0       -0.937885   -0.011845    1.937252
     11          1           0        3.354954    0.048284   -0.553634
     12          6           0        3.790857   -0.099253    2.147018
     13          6           0        3.709758   -0.582989    3.611524
     14          8           0        4.584795    1.106494    2.068625
     15          1           0        4.363214   -0.864329    1.605177
     16         16           0        3.240165    0.877211    4.608539
     17          1           0        5.164881    2.253888    6.192951
     18         15           0        4.474294    2.090116    3.381123
     19          6           0        6.056904    1.938874    5.652192
     20         16           0        3.911809    3.886125    2.894277
     21          6           0        6.049319    1.873296    4.245310
     22          1           0        7.094093    1.544073    7.476146
     23          6           0        7.162344    1.530174    6.393714
     24          1           0        8.868815    0.502651    8.391905
     25          6           0        7.245222    1.548068    3.594618
     26          6           0        8.308067    1.096046    5.736652
     27          1           0        7.301615    1.548976    2.508391
     28          6           0        8.371700    1.175606    4.343342
     29          6           0        9.111648   -0.158123    7.553338
     30          8           0        9.409676    0.595812    6.376280
     31          1           0        8.301001   -0.876511    7.378989
     32          1           0       10.004797   -0.727529    7.826935
     33          1           0        9.294189    0.900399    3.835664
     34          1           0        4.706941   -0.887371    3.947434
     35          1           0        3.020539   -1.417450    3.760113
 ---------------------------------------------------------------------
                    Distance matrix (angstroms):
                    1          2          3          4          5
     1  C    0.000000
     2  C    1.386840   0.000000
     3  C    2.408942   1.396100   0.000000
     4  C    2.831453   2.451403   1.408250   0.000000
     5  C    2.426532   2.788226   2.400588   1.404360   0.000000
     6  C    1.392880   2.401621   2.769547   2.441851   1.401859
     7  H    1.086630   2.145813   3.393795   3.918018   3.414208
     8  H    2.146740   3.383996   3.856602   3.424140   2.162194
     9  H    3.362398   2.109476   1.085360   2.188872   3.406968
    10  H    2.152374   1.087530   2.153066   3.428811   3.875656
    11  H    3.400670   3.876014   3.399030   2.168544   1.088230
    12  C    4.357767   3.867599   2.583343   1.529610   2.536527
    13  C    5.210114   4.364791   2.987363   2.598688   3.870626
    14  O    5.150135   4.765449   3.551380   2.484686   3.165710
    15  H    4.728773   4.453355   3.304034   2.111816   2.665158
    16  S    5.701474   4.652689   3.356956   3.399205   4.741238
    17  H    8.373091   7.406397   6.132869   5.932590   7.112674
    18  P    5.984972   5.325886   4.087569   3.502385   4.443051
    19  C    8.508383   7.657581   6.323734   5.886183   6.970305
    20  S    6.227444   5.716343   4.801971   4.395560   5.030094
    21  C    7.624051   6.947975   5.621588   4.940385   5.865018
    22  H   10.421280   9.475757   8.129668   7.785411   8.930020
    23  C    9.722149   8.871831   7.506834   7.018810   8.084634
    24  H   12.220172  11.312801   9.935321   9.490616  10.579285
    25  C    8.234746   7.730721   6.411174   5.484705   6.190608
    26  C   10.155514   9.441724   8.057968   7.357611   8.274551
    27  H    7.874322   7.547900   6.299643   5.203689   5.680928
    28  C    9.504316   8.955909   7.601222   6.705780   7.442314
    29  C   11.836387  11.003310   9.611636   9.057710  10.078954
    30  O   11.382177  10.667310   9.274665   8.564621   9.463869
    31  H   11.141112  10.275249   8.893609   8.399553   9.465982
    32  H   12.723450  11.920574  10.529393   9.934195  10.912167
    33  H   10.094800   9.653466   8.320671   7.311902   7.906971
    34  H    6.206847   5.431331   4.060920   3.507088   4.640892
    35  H    5.027054   4.094538   2.845970   2.803110   4.063774
                    6          7          8          9         10
     6  C    0.000000
     7  H    2.159237   0.000000
     8  H    1.087110   2.479865   0.000000
     9  H    3.852878   4.248208   4.939654   0.000000
    10  H    3.392105   2.478214   4.287421   2.408714   0.000000
    11  H    2.147528   4.297721   2.468516   4.332091   4.963526
    12  C    3.833562   5.443700   4.695824   2.845861   4.734199
    13  C    5.008077   6.261224   5.967885   2.671783   4.972924
    14  O    4.488155   6.214749   5.228793   3.794692   5.636305
    15  H    3.996375   5.785273   4.705832   3.681865   5.379466
    16  S    5.734381   6.694150   6.752320   2.709387   5.038084
    17  H    8.242194   9.370440   9.171084   5.534303   7.777421
    18  P    5.609361   7.011909   6.443744   3.961869   5.982866
    19  C    8.205348   9.548480   9.073544   5.856047   8.156785
    20  S    5.919389   7.113866   6.636844   4.808584   6.295204
    21  C    7.151978   8.681489   7.943104   5.380165   7.596177
    22  H   10.175814  11.458508  11.068723   7.522043   9.879924
    23  C    9.370869  10.778290  10.219072   7.013895   9.372917
    24  H   11.886153  13.278703  12.737442   9.350162  11.751536
    25  C    7.553727   9.305422   8.221300   6.325965   8.493729
    26  C    9.631635  11.234683  10.390314   7.703470  10.057359
    27  H    7.044461   8.928376   7.602238   6.400003   8.405458
    28  C    8.825809  10.584474   9.489820   7.431118   9.688533
    29  C   11.416572  12.908043  12.225922   9.105556  11.513250
    30  O   10.836017  12.465441  11.575925   8.898598  11.275914
    31  H   10.775907  12.202431  11.613222   8.356754  10.757191
    32  H   12.262191  13.797172  13.041916  10.045161  12.447604
    33  H    9.303101  11.170636   9.879690   8.240094  10.446602
    34  H    5.875288   7.267326   6.766604   3.756514   6.055694
    35  H    5.011885   6.013344   5.997286   2.416112   4.579046
                   11         12         13         14         15
    11  H    0.000000
    12  C    2.739580   0.000000
    13  C    4.227639   1.544460   0.000000
    14  O    3.083595   1.445790   2.449609   0.000000
    15  H    2.551454   1.098420   2.128752   2.036670   0.000000
    16  S    5.229563   2.704779   1.829410   2.883014   3.648888
    17  H    7.325090   4.877990   4.102319   4.320079   5.604786
    18  P    4.572123   2.604503   2.789819   1.643890   3.448923
    19  C    7.027598   4.644908   4.004150   3.962564   5.206233
    20  S    5.189143   4.056632   4.530812   2.976737   4.942910
    21  C    5.798287   3.659840   3.450879   2.733271   4.160269
    22  H    8.983090   6.481627   5.559984   5.977402   6.908428
    23  C    8.059644   5.661836   4.911862   5.052689   6.041429
    24  H   10.518164   8.071341   7.116637   7.661679   8.260069
    25  C    5.881457   4.091680   4.128099   3.098631   4.252471
    26  C    8.074579   5.892316   5.336644   5.226594   6.039372
    27  H    5.215766   3.895211   4.320141   2.787525   3.908201
    28  C    7.100631   5.237673   5.036062   4.418117   5.265628
    29  C    9.945106   7.585683   6.700659   7.223139   7.643754
    30  O    9.218631   7.066887   6.443797   6.488156   7.096634
    31  H    9.393888   6.951191   5.946382   6.778087   6.988792
    32  H   10.726427   8.442111   7.577473   8.117770   8.399788
    33  H    7.434147   5.842730   5.782435   5.034212   5.692438
    34  H    4.791965   2.168372   1.095380   2.742324   2.367456
    35  H    4.568218   2.221060   1.092440   3.417356   2.598551
                   16         17         18         19         20
    16  S    0.000000
    17  H    2.847830   0.000000
    18  P    2.121501   2.900019   0.000000
    19  C    3.185963   1.089660   2.772234   0.000000
    20  S    3.527516   3.887884   1.943980   3.999914   0.000000
    21  C    3.002577   2.172645   1.809567   1.408430   3.231985
    22  H    4.849808   2.423280   4.891904   2.135050   6.050262
    23  C    4.358521   2.133993   4.076132   1.392440   5.325650
    24  H    6.792338   4.649877   6.851262   4.180384   8.139024
    25  C    4.185519   3.402548   2.831508   2.407995   4.131420
    26  C    5.196553   3.380595   4.608091   2.405250   5.932177
    27  H    4.621393   4.317235   3.008029   3.403646   4.135452
    28  C    5.147040   3.855831   4.117276   2.766577   5.416395
    29  C    6.649668   4.821351   6.630763   4.164519   8.068527
    30  O    6.423937   4.560824   5.963380   3.683640   7.292260
    31  H    6.030174   4.587084   6.279132   3.993019   7.877840
    32  H    7.661169   5.914688   7.634843   5.236895   9.096232
    33  H    6.103203   4.943675   4.985321   3.854636   6.226620
    34  H    2.387936   3.888388   3.039779   3.565986   4.952538
    35  H    2.456324   4.898533   3.815764   4.905546   5.447196
                   21         22         23         24         25
    21  C    0.000000
    22  H    3.411487   0.000000
    23  C    2.443808   1.084670   0.000000
    24  H    5.198314   2.252290   2.821455   0.000000
    25  C    1.399770   3.884471   2.800380   5.171354   0.000000
    26  C    2.816054   2.168017   1.390280   2.777935   2.433572
    27  H    2.165713   4.972089   3.887864   6.177915   1.087690
    28  C    2.426898   3.403308   2.406717   4.134108   1.402950
    29  C    4.944449   2.640825   2.827519   1.094890   4.697457
    30  O    4.179114   2.733282   2.433894   2.089007   3.650931
    31  H    4.738297   2.706528   2.838916   1.802914   4.616787
    32  H    5.936172   3.708831   3.902676   1.767198   5.541309
    33  H    3.412260   4.302075   3.388953   4.593308   2.162370
    34  H    3.084151   4.905326   4.225851   6.245532   3.535352
    35  H    4.498659   6.258863   5.725285   7.703416   5.164265
                   26         27         28         29         30
    26  C    0.000000
    27  H    3.411709   0.000000
    28  C    1.397030   2.156740   0.000000
    29  C    2.349262   5.625113   3.553932   0.000000
    30  O    1.368540   4.506995   2.355078   1.429232   0.000000
    31  H    2.566769   5.532132   3.664879   1.097100   2.098171
    32  H    3.251708   6.385653   4.292360   1.093980   2.051780
    33  H    2.150459   2.480454   1.088330   3.869741   2.561414
    34  H    4.483676   3.839136   4.224107   5.738972   5.496803
    35  H    6.179184   5.356688   5.974866   7.285333   7.191566
                   31         32         33         34         35
    31  H    0.000000
    32  H    1.767985   0.000000
    33  H    4.086440   4.368679   0.000000
    34  H    4.969201   6.568360   4.924577   0.000000
    35  H    6.424341   8.111405   6.688559   1.777646   0.000000
 Stoichiometry    C15H15O2PS2
 Framework group  C1[X(C15H15O2PS2)]
 Deg. of freedom    99
 Full point group                 C1      NOp   1
 Largest Abelian subgroup         C1      NOp   1
 Largest concise Abelian subgroup C1      NOp   1
                         Standard orientation:                         
 ---------------------------------------------------------------------
 Center     Atomic      Atomic             Coordinates (Angstroms)
 Number     Number       Type             X           Y           Z
 ---------------------------------------------------------------------
      1          6           0        5.785296   -0.592038    0.056423
      2          6           0        4.952181   -0.772131   -1.037565
      3          6           0        3.570928   -0.858578   -0.853815
      4          6           0        2.982241   -0.755840    0.421356
      5          6           0        3.843417   -0.546557    1.510761
      6          6           0        5.231717   -0.476426    1.329332
      7          1           0        6.861506   -0.543010   -0.085467
      8          1           0        5.887023   -0.338832    2.185749
      9          1           0        2.983476   -1.028904   -1.750416
     10          1           0        5.368825   -0.858405   -2.038407
     11          1           0        3.444250   -0.461346    2.519546
     12          6           0        1.486208   -0.956918    0.668660
     13          6           0        0.707771   -1.626999   -0.484763
     14          8           0        0.809751    0.251378    1.084277
     15          1           0        1.414406   -1.643285    1.523218
     16         16           0        0.371481   -0.310171   -1.709350
     17          1           0       -2.216776    0.855358   -1.938706
     18         15           0        0.034416    1.055866   -0.121555
     19          6           0       -2.577859    0.616139   -0.938830
     20         16           0        0.637908    2.898048   -0.267229
     21          6           0       -1.721680    0.733788    0.173281
     22          1           0       -4.468954   -0.008797   -1.708020
     23          6           0       -3.871964    0.118207   -0.811370
     24          1           0       -6.352232   -1.154537   -1.246116
     25          6           0       -2.257782    0.499708    1.444955
     26          6           0       -4.356021   -0.223187    0.446413
     27          1           0       -1.650202    0.641847    2.335861
     28          6           0       -3.575711    0.036840    1.575658
     29          6           0       -5.991472   -1.700027   -0.368006
     30          8           0       -5.578904   -0.798658    0.661570
     31          1           0       -5.186958   -2.392326   -0.645687
     32          1           0       -6.823309   -2.297229    0.016947
     33          1           0       -3.983941   -0.167106    2.563695
     34          1           0       -0.264451   -1.969176   -0.113878
     35          1           0        1.230480   -2.475928   -0.931440
 ---------------------------------------------------------------------
 Rotational constants (GHZ):           0.6366285           0.1328132           0.1278234
 Standard basis: 6-31+G(d,p) (6D, 7F)
 There are   467 symmetry adapted cartesian basis functions of A   symmetry.
 There are   467 symmetry adapted basis functions of A   symmetry.
   467 basis functions,   817 primitive gaussians,   467 cartesian basis functions
    84 alpha electrons       84 beta electrons
       nuclear repulsion energy      1935.6150242636 Hartrees.
 NAtoms=   35 NActive=   35 NUniq=   35 SFac= 1.00D+00 NAtFMM=   60 NAOKFM=F Big=F
 Integral buffers will be    131072 words long.
 Raffenetti 2 integral format.
 Two-electron integral symmetry is turned on.
 One-electron integrals computed using PRISM.
 NBasis=   467 RedAO= T EigKep=  1.85D-06  NBF=   467
 NBsUse=   467 1.00D-06 EigRej= -1.00D+00 NBFU=   467
 ExpMin= 3.48D-02 ExpMax= 2.19D+04 ExpMxC= 3.30D+03 IAcc=3 IRadAn=         5 AccDes= 0.00D+00
 Harris functional with IExCor=  402 and IRadAn=       5 diagonalized for initial guess.
 HarFok:  IExCor=  402 AccDes= 0.00D+00 IRadAn=         5 IDoV= 1 UseB2=F ITyADJ=14
 ICtDFT=  3500011 ScaDFX=  1.000000  1.000000  1.000000  1.000000
 FoFCou: FMM=F IPFlag=           0 FMFlag=      100000 FMFlg1=           0
         NFxFlg=           0 DoJE=T BraDBF=F KetDBF=T FulRan=T
         wScrn=  0.000000 ICntrl=       500 IOpCl=  0 I1Cent=   200000004 NGrid=           0
         NMat0=    1 NMatS0=      1 NMatT0=    0 NMatD0=    1 NMtDS0=    0 NMtDT0=    0
 Petite list used in FoFCou.
 Requested convergence on RMS density matrix=1.00D-08 within 128 cycles.
 Requested convergence on MAX density matrix=1.00D-06.
 Requested convergence on             energy=1.00D-06.
 No special actions if energy rises.
 SCF Done:  E(RB3LYP) =  -1868.87424684     A.U. after   17 cycles
            NFock= 17  Conv=0.23D-08     -V/T= 2.0058

 **********************************************************************

            Population analysis using the SCF Density.

 **********************************************************************

 Orbital symmetries:
       Occupied  (A) (A) (A) (A) (A) (A) (A) (A) (A) (A) (A) (A)
                 (A) (A) (A) (A) (A) (A) (A) (A) (A) (A) (A) (A)
                 (A) (A) (A) (A) (A) (A) (A) (A) (A) (A) (A) (A)
                 (A) (A) (A) (A) (A) (A) (A) (A) (A) (A) (A) (A)
                 (A) (A) (A) (A) (A) (A) (A) (A) (A) (A) (A) (A)
                 (A) (A) (A) (A) (A) (A) (A) (A) (A) (A) (A) (A)
                 (A) (A) (A) (A) (A) (A) (A) (A) (A) (A) (A) (A)
       Virtual   (A) (A) (A) (A) (A) (A) (A) (A) (A) (A) (A) (A)
                 (A) (A) (A) (A) (A) (A) (A) (A) (A) (A) (A) (A)
                 (A) (A) (A) (A) (A) (A) (A) (A) (A) (A) (A) (A)
                 (A) (A) (A) (A) (A) (A) (A) (A) (A) (A) (A) (A)
                 (A) (A) (A) (A) (A) (A) (A) (A) (A) (A) (A) (A)
                 (A) (A) (A) (A) (A) (A) (A) (A) (A) (A) (A) (A)
                 (A) (A) (A) (A) (A) (A) (A) (A) (A) (A) (A) (A)
                 (A) (A) (A) (A) (A) (A) (A) (A) (A) (A) (A) (A)
                 (A) (A) (A) (A) (A) (A) (A) (A) (A) (A) (A) (A)
                 (A) (A) (A) (A) (A) (A) (A) (A) (A) (A) (A) (A)
                 (A) (A) (A) (A) (A) (A) (A) (A) (A) (A) (A) (A)
                 (A) (A) (A) (A) (A) (A) (A) (A) (A) (A) (A) (A)
                 (A) (A) (A) (A) (A) (A) (A) (A) (A) (A) (A) (A)
                 (A) (A) (A) (A) (A) (A) (A) (A) (A) (A) (A) (A)
                 (A) (A) (A) (A) (A) (A) (A) (A) (A) (A) (A) (A)
                 (A) (A) (A) (A) (A) (A) (A) (A) (A) (A) (A) (A)
                 (A) (A) (A) (A) (A) (A) (A) (A) (A) (A) (A) (A)
                 (A) (A) (A) (A) (A) (A) (A) (A) (A) (A) (A) (A)
                 (A) (A) (A) (A) (A) (A) (A) (A) (A) (A) (A) (A)
                 (A) (A) (A) (A) (A) (A) (A) (A) (A) (A) (A) (A)
                 (A) (A) (A) (A) (A) (A) (A) (A) (A) (A) (A) (A)
                 (A) (A) (A) (A) (A) (A) (A) (A) (A) (A) (A) (A)
                 (A) (A) (A) (A) (A) (A) (A) (A) (A) (A) (A) (A)
                 (A) (A) (A) (A) (A) (A) (A) (A) (A) (A) (A) (A)
                 (A) (A) (A) (A) (A) (A) (A) (A) (A) (A) (A) (A)
                 (A) (A) (A) (A) (A) (A) (A) (A) (A) (A) (A) (A)
                 (A) (A) (A) (A) (A) (A) (A) (A) (A) (A) (A) (A)
                 (A) (A) (A) (A) (A) (A) (A) (A) (A) (A) (A) (A)
                 (A) (A) (A) (A) (A) (A) (A) (A) (A) (A) (A) (A)
                 (A) (A) (A) (A) (A) (A) (A) (A) (A) (A) (A) (A)
                 (A) (A) (A) (A) (A) (A) (A) (A) (A) (A) (A) (A)
                 (A) (A) (A) (A) (A) (A) (A) (A) (A) (A) (A)
 The electronic state is 1-A.
 Alpha  occ. eigenvalues --  -88.89447 -88.83701 -77.21015 -19.19920 -19.19703
 Alpha  occ. eigenvalues --  -10.28425 -10.26962 -10.25571 -10.24956 -10.21936
 Alpha  occ. eigenvalues --  -10.21922 -10.21631 -10.21533 -10.21064 -10.20792
 Alpha  occ. eigenvalues --  -10.20507 -10.20256 -10.20254 -10.20118 -10.20029
 Alpha  occ. eigenvalues --   -7.95720  -7.89961  -6.66467  -5.92161  -5.91899
 Alpha  occ. eigenvalues --   -5.91181  -5.86524  -5.85783  -5.85665  -4.82916
 Alpha  occ. eigenvalues --   -4.82690  -4.82491  -1.08264  -1.07161  -0.87715
 Alpha  occ. eigenvalues --   -0.86928  -0.82839  -0.80366  -0.77166  -0.76916
 Alpha  occ. eigenvalues --   -0.75468  -0.74686  -0.71072  -0.69410  -0.64797
 Alpha  occ. eigenvalues --   -0.63145  -0.61915  -0.61533  -0.59832  -0.56920
 Alpha  occ. eigenvalues --   -0.54814  -0.53678  -0.51239  -0.50262  -0.49230
 Alpha  occ. eigenvalues --   -0.48670  -0.48016  -0.46647  -0.46486  -0.45519
 Alpha  occ. eigenvalues --   -0.44412  -0.44339  -0.43177  -0.43054  -0.41864
 Alpha  occ. eigenvalues --   -0.40170  -0.40030  -0.38327  -0.38016  -0.37510
 Alpha  occ. eigenvalues --   -0.36991  -0.36388  -0.35205  -0.35059  -0.34524
 Alpha  occ. eigenvalues --   -0.32434  -0.31452  -0.27871  -0.26820  -0.26325
 Alpha  occ. eigenvalues --   -0.25885  -0.24836  -0.24026  -0.22532
 Alpha virt. eigenvalues --   -0.04276  -0.03211  -0.03070  -0.02170  -0.01970
 Alpha virt. eigenvalues --   -0.01319  -0.00691   0.00226   0.00902   0.01321
 Alpha virt. eigenvalues --    0.01676   0.02100   0.02702   0.02873   0.03205
 Alpha virt. eigenvalues --    0.03635   0.04057   0.04422   0.04746   0.05203
 Alpha virt. eigenvalues --    0.05817   0.06038   0.06293   0.06565   0.07444
 Alpha virt. eigenvalues --    0.07610   0.08066   0.08263   0.08614   0.08946
 Alpha virt. eigenvalues --    0.09284   0.09611   0.09862   0.10393   0.11086
 Alpha virt. eigenvalues --    0.11282   0.11504   0.11914   0.12342   0.12777
 Alpha virt. eigenvalues --    0.13121   0.13588   0.13695   0.13855   0.14285
 Alpha virt. eigenvalues --    0.14616   0.14821   0.15201   0.15439   0.15806
 Alpha virt. eigenvalues --    0.16083   0.16247   0.16633   0.16862   0.17026
 Alpha virt. eigenvalues --    0.17507   0.17740   0.18425   0.18797   0.18906
 Alpha virt. eigenvalues --    0.19196   0.19361   0.19551   0.19958   0.20621
 Alpha virt. eigenvalues --    0.20627   0.20884   0.21211   0.21466   0.21783
 Alpha virt. eigenvalues --    0.22200   0.22347   0.22678   0.22739   0.23326
 Alpha virt. eigenvalues --    0.23447   0.23683   0.24069   0.24367   0.24885
 Alpha virt. eigenvalues --    0.25150   0.25332   0.25737   0.26295   0.26449
 Alpha virt. eigenvalues --    0.26617   0.26866   0.27190   0.27413   0.27953
 Alpha virt. eigenvalues --    0.28184   0.28819   0.29089   0.29356   0.30090
 Alpha virt. eigenvalues --    0.30328   0.30770   0.30978   0.31853   0.32086
 Alpha virt. eigenvalues --    0.32187   0.32349   0.33073   0.33551   0.34313
 Alpha virt. eigenvalues --    0.34746   0.35320   0.35646   0.36650   0.36943
 Alpha virt. eigenvalues --    0.37267   0.38018   0.38496   0.38554   0.39348
 Alpha virt. eigenvalues --    0.40014   0.42176   0.42689   0.44691   0.46610
 Alpha virt. eigenvalues --    0.47090   0.49504   0.50978   0.51824   0.53545
 Alpha virt. eigenvalues --    0.55975   0.56944   0.57486   0.59089   0.60601
 Alpha virt. eigenvalues --    0.61431   0.62433   0.63635   0.64809   0.65748
 Alpha virt. eigenvalues --    0.66061   0.67306   0.67946   0.68226   0.69082
 Alpha virt. eigenvalues --    0.69666   0.70366   0.70548   0.71088   0.71838
 Alpha virt. eigenvalues --    0.72788   0.73012   0.73518   0.73799   0.74862
 Alpha virt. eigenvalues --    0.75123   0.75592   0.75911   0.76275   0.76530
 Alpha virt. eigenvalues --    0.77073   0.77979   0.78550   0.79369   0.80469
 Alpha virt. eigenvalues --    0.81422   0.81994   0.82166   0.83291   0.84125
 Alpha virt. eigenvalues --    0.85334   0.85788   0.86107   0.86912   0.87908
 Alpha virt. eigenvalues --    0.88418   0.89210   0.89881   0.90068   0.91452
 Alpha virt. eigenvalues --    0.91926   0.92709   0.93669   0.94197   0.94874
 Alpha virt. eigenvalues --    0.95994   0.96182   0.96724   0.97379   0.97860
 Alpha virt. eigenvalues --    0.99050   0.99593   1.00608   1.01230   1.01653
 Alpha virt. eigenvalues --    1.02126   1.03964   1.05382   1.05820   1.08356
 Alpha virt. eigenvalues --    1.09326   1.09964   1.10248   1.10598   1.11324
 Alpha virt. eigenvalues --    1.11865   1.12567   1.14529   1.15108   1.16318
 Alpha virt. eigenvalues --    1.17275   1.18622   1.19394   1.21187   1.21418
 Alpha virt. eigenvalues --    1.22948   1.23625   1.24259   1.25309   1.26826
 Alpha virt. eigenvalues --    1.27651   1.29626   1.30274   1.31014   1.33103
 Alpha virt. eigenvalues --    1.34025   1.35424   1.36057   1.36903   1.37347
 Alpha virt. eigenvalues --    1.38314   1.39538   1.40080   1.41395   1.41950
 Alpha virt. eigenvalues --    1.42262   1.42776   1.44741   1.45810   1.47015
 Alpha virt. eigenvalues --    1.47547   1.47807   1.48695   1.51414   1.54704
 Alpha virt. eigenvalues --    1.58640   1.65757   1.67352   1.68553   1.71302
 Alpha virt. eigenvalues --    1.72008   1.74292   1.77894   1.79883   1.79996
 Alpha virt. eigenvalues --    1.82372   1.84640   1.85676   1.87429   1.88065
 Alpha virt. eigenvalues --    1.88338   1.90141   1.90644   1.91181   1.92248
 Alpha virt. eigenvalues --    1.93561   1.94441   1.95044   1.95514   1.95771
 Alpha virt. eigenvalues --    1.97123   1.97303   1.99012   1.99994   2.00791
 Alpha virt. eigenvalues --    2.01527   2.02006   2.02356   2.03704   2.06126
 Alpha virt. eigenvalues --    2.07576   2.08615   2.09222   2.09754   2.10431
 Alpha virt. eigenvalues --    2.11115   2.12903   2.13925   2.15175   2.18553
 Alpha virt. eigenvalues --    2.19933   2.20991   2.26729   2.28124   2.28491
 Alpha virt. eigenvalues --    2.29792   2.30114   2.32178   2.33505   2.37397
 Alpha virt. eigenvalues --    2.37925   2.38977   2.39605   2.39890   2.41208
 Alpha virt. eigenvalues --    2.43957   2.44505   2.46428   2.47592   2.48500
 Alpha virt. eigenvalues --    2.48959   2.49956   2.50404   2.52354   2.53084
 Alpha virt. eigenvalues --    2.53690   2.55472   2.56633   2.57392   2.57753
 Alpha virt. eigenvalues --    2.58498   2.58666   2.60373   2.61534   2.62642
 Alpha virt. eigenvalues --    2.63116   2.64372   2.66035   2.68122   2.69423
 Alpha virt. eigenvalues --    2.70277   2.72243   2.73784   2.75576   2.76967
 Alpha virt. eigenvalues --    2.78193   2.78852   2.80059   2.81608   2.83587
 Alpha virt. eigenvalues --    2.84302   2.86230   2.88797   2.97297   2.98563
 Alpha virt. eigenvalues --    3.04515   3.05164   3.05684   3.07685   3.17525
 Alpha virt. eigenvalues --    3.19531   3.21271   3.26343   3.27452   3.28121
 Alpha virt. eigenvalues --    3.29740   3.30872   3.34996   3.36169   3.41178
 Alpha virt. eigenvalues --    3.42751   3.45559   3.45922   3.47098   3.51628
 Alpha virt. eigenvalues --    3.51710   3.52795   3.79185   3.88285   3.97310
 Alpha virt. eigenvalues --    3.99088   4.29173   4.30343   4.30913   4.32531
 Alpha virt. eigenvalues --    4.32986   4.37728   4.40597   4.45130   4.49478
 Alpha virt. eigenvalues --    4.49863   4.51786   4.52417   4.54189   4.57870
 Alpha virt. eigenvalues --    4.67706   4.85243   4.86190
          Condensed to atoms (all electrons):
               1          2          3          4          5          6
     1  C    5.768609   0.964314  -0.590084  -1.361139   0.195441   0.653008
     2  C    0.964314  13.491758  -6.895855  -3.190562   0.384695  -0.235399
     3  C   -0.590084  -6.895855  28.045253   0.725333 -13.373418   0.069936
     4  C   -1.361139  -3.190562   0.725333  27.267385  -8.710286   0.237151
     5  C    0.195441   0.384695 -13.373418  -8.710286  24.550158  -1.628889
     6  C    0.653008  -0.235399   0.069936   0.237151  -1.628889   7.811277
     7  H    0.240783   0.010920   0.041488   0.008110  -0.004725   0.012148
     8  H   -0.000785   0.013093  -0.005126   0.043461  -0.020173   0.286809
     9  H    0.003976   0.173291   0.065756   0.018541   0.020409   0.013753
    10  H    0.000569   0.238875   0.036178   0.038375   0.002514   0.001678
    11  H   -0.009193   0.006327   0.038527   0.066326   0.203496  -0.048357
    12  C    0.117618   2.607005  -2.399195 -11.420044   4.306335  -1.029954
    13  C    0.000952  -0.720629   0.673472   2.045902  -0.601862  -0.068920
    14  O   -0.010538  -0.021305  -0.523282   0.109840   0.329186  -0.010421
    15  H    0.002553  -0.008630  -0.195673  -0.132902   0.246839   0.057050
    16  S   -0.051999  -0.419302  -0.685100   1.200018   0.335791   0.072273
    17  H   -0.000002   0.000066   0.000182  -0.000655  -0.000028  -0.000008
    18  P    0.041589  -0.144561   0.810851  -0.282207  -0.406617  -0.165464
    19  C   -0.007328  -0.158476  -0.607799   0.899646   0.266500   0.025272
    20  S   -0.003801   0.051494   0.170395  -0.202754  -0.123774   0.014147
    21  C    0.005245   0.164078   0.296219  -0.023729  -0.062397   0.055195
    22  H   -0.000000   0.000002   0.000034  -0.000094  -0.000006  -0.000000
    23  C   -0.001267  -0.014772  -0.142847   0.133841   0.067288   0.004770
    24  H   -0.000000   0.000000   0.000001   0.000001  -0.000000   0.000000
    25  C    0.002390   0.102070   0.515187  -0.902738  -0.317121  -0.051305
    26  C   -0.000084  -0.000641  -0.002729   0.032446  -0.012504  -0.000677
    27  H   -0.000002  -0.000081  -0.001982   0.008740   0.001769  -0.000042
    28  C    0.000137  -0.003182   0.014603  -0.030161   0.000871   0.004683
    29  C   -0.000001   0.000093   0.000801  -0.000667  -0.000267   0.000002
    30  O    0.000000   0.000006   0.000145  -0.000425  -0.000044  -0.000001
    31  H    0.000000  -0.000000  -0.000014   0.000029   0.000002  -0.000000
    32  H    0.000000  -0.000000  -0.000000  -0.000000  -0.000000  -0.000000
    33  H    0.000000  -0.000002  -0.000033   0.000310   0.000023   0.000002
    34  H    0.000083  -0.009545  -0.031770   0.101710   0.008636   0.000257
    35  H    0.000887   0.031770   0.100276  -0.012624  -0.070029   0.000129
               7          8          9         10         11         12
     1  C    0.240783  -0.000785   0.003976   0.000569  -0.009193   0.117618
     2  C    0.010920   0.013093   0.173291   0.238875   0.006327   2.607005
     3  C    0.041488  -0.005126   0.065756   0.036178   0.038527  -2.399195
     4  C    0.008110   0.043461   0.018541   0.038375   0.066326 -11.420044
     5  C   -0.004725  -0.020173   0.020409   0.002514   0.203496   4.306335
     6  C    0.012148   0.286809   0.013753   0.001678  -0.048357  -1.029954
     7  H    0.578190  -0.005791  -0.000190  -0.005683  -0.000159  -0.000942
     8  H   -0.005791   0.574545   0.000015  -0.000179  -0.005901  -0.007635
     9  H   -0.000190   0.000015   0.593630  -0.007400  -0.000145   0.031919
    10  H   -0.005683  -0.000179  -0.007400   0.575857   0.000015  -0.008805
    11  H   -0.000159  -0.005901  -0.000145   0.000015   0.580592   0.031121
    12  C   -0.000942  -0.007635   0.031919  -0.008805   0.031121  17.448681
    13  C    0.000284   0.000161  -0.024426   0.000550   0.006388  -3.513869
    14  O   -0.000001   0.000013  -0.000951  -0.000011   0.001210   0.173480
    15  H   -0.000000  -0.000001  -0.000003   0.000003   0.001645   0.351059
    16  S    0.000083   0.000024  -0.003555   0.000399  -0.001636  -0.291743
    17  H    0.000000  -0.000000  -0.000000  -0.000000  -0.000000  -0.004054
    18  P   -0.000283  -0.000444  -0.003978  -0.000879   0.006452  -0.889409
    19  C   -0.000000  -0.000003  -0.000554  -0.000001   0.000006  -1.170072
    20  S    0.000051  -0.000013  -0.000338  -0.000150  -0.001367   0.255457
    21  C   -0.000000  -0.000004   0.001490   0.000068   0.001030   0.118043
    22  H    0.000000  -0.000000  -0.000000  -0.000000   0.000000   0.000322
    23  C   -0.000000  -0.000000  -0.000310   0.000002   0.000010   0.064567
    24  H    0.000000  -0.000000   0.000000  -0.000000   0.000000   0.000022
    25  C   -0.000000   0.000023   0.001076   0.000005  -0.000412   1.070562
    26  C   -0.000000   0.000000   0.000033   0.000000   0.000008  -0.057191
    27  H    0.000000  -0.000000  -0.000000  -0.000000   0.000000   0.001973
    28  C    0.000000   0.000001   0.000037  -0.000001  -0.000448   0.073390
    29  C    0.000000   0.000000  -0.000000   0.000000   0.000000   0.003055
    30  O    0.000000  -0.000000  -0.000000  -0.000000   0.000000   0.000991
    31  H   -0.000000   0.000000  -0.000000  -0.000000  -0.000000  -0.000156
    32  H    0.000000   0.000000  -0.000000  -0.000000  -0.000000  -0.000008
    33  H   -0.000000  -0.000000  -0.000000  -0.000000  -0.000000  -0.000920
    34  H   -0.000000  -0.000000   0.000187  -0.000000  -0.000003  -0.198003
    35  H    0.000000   0.000000  -0.000666  -0.000004  -0.000001  -0.097514
              13         14         15         16         17         18
     1  C    0.000952  -0.010538   0.002553  -0.051999  -0.000002   0.041589
     2  C   -0.720629  -0.021305  -0.008630  -0.419302   0.000066  -0.144561
     3  C    0.673472  -0.523282  -0.195673  -0.685100   0.000182   0.810851
     4  C    2.045902   0.109840  -0.132902   1.200018  -0.000655  -0.282207
     5  C   -0.601862   0.329186   0.246839   0.335791  -0.000028  -0.406617
     6  C   -0.068920  -0.010421   0.057050   0.072273  -0.000008  -0.165464
     7  H    0.000284  -0.000001  -0.000000   0.000083   0.000000  -0.000283
     8  H    0.000161   0.000013  -0.000001   0.000024  -0.000000  -0.000444
     9  H   -0.024426  -0.000951  -0.000003  -0.003555  -0.000000  -0.003978
    10  H    0.000550  -0.000011   0.000003   0.000399  -0.000000  -0.000879
    11  H    0.006388   0.001210   0.001645  -0.001636  -0.000000   0.006452
    12  C   -3.513869   0.173480   0.351059  -0.291743  -0.004054  -0.889409
    13  C    8.145070   0.083677  -0.054995  -0.488653   0.001808   0.579558
    14  O    0.083677   9.107550  -0.041089   0.110790   0.002100  -0.973230
    15  H   -0.054995  -0.041089   0.615963   0.013926   0.000001   0.001356
    16  S   -0.488653   0.110790   0.013926  17.548644   0.020506  -1.598396
    17  H    0.001808   0.002100   0.000001   0.020506   0.574667  -0.011750
    18  P    0.579558  -0.973230   0.001356  -1.598396  -0.011750  20.703171
    19  C    0.483148   0.878843   0.002872   0.008767   0.294730   0.443575
    20  S   -0.209263  -0.104740  -0.001933   0.034737  -0.005166  -0.073830
    21  C   -0.070077   0.574335   0.003450   0.208179   0.040700  -3.812187
    22  H   -0.000544  -0.000004   0.000000   0.001545  -0.006855   0.000018
    23  C   -0.206948   0.100963   0.002772   0.518390  -0.055805  -1.406802
    24  H   -0.000022   0.000000   0.000000   0.000114   0.000009  -0.000475
    25  C   -0.264728  -1.502939  -0.008993  -0.517439   0.025963   2.389697
    26  C    0.028518  -0.065738  -0.000635  -0.069845  -0.001414   0.308228
    27  H   -0.008379  -0.000028   0.000055   0.002299  -0.000160   0.027333
    28  C   -0.042774   0.009288   0.001210   0.009359  -0.006605  -0.247938
    29  C   -0.002048  -0.000353  -0.000006  -0.000308  -0.000707  -0.010527
    30  O   -0.000720  -0.000004  -0.000000  -0.001871  -0.000742   0.004363
    31  H    0.000129   0.000001   0.000000   0.000427   0.000000  -0.001226
    32  H    0.000007  -0.000000  -0.000000  -0.000050  -0.000000   0.000187
    33  H    0.000524   0.000249   0.000000  -0.000023   0.000012   0.000051
    34  H    0.447485   0.010391  -0.005686   0.022294   0.000048  -0.103240
    35  H    0.386003   0.002200  -0.000626  -0.036578   0.000001   0.020934
              19         20         21         22         23         24
     1  C   -0.007328  -0.003801   0.005245  -0.000000  -0.001267  -0.000000
     2  C   -0.158476   0.051494   0.164078   0.000002  -0.014772   0.000000
     3  C   -0.607799   0.170395   0.296219   0.000034  -0.142847   0.000001
     4  C    0.899646  -0.202754  -0.023729  -0.000094   0.133841   0.000001
     5  C    0.266500  -0.123774  -0.062397  -0.000006   0.067288  -0.000000
     6  C    0.025272   0.014147   0.055195  -0.000000   0.004770   0.000000
     7  H   -0.000000   0.000051  -0.000000   0.000000  -0.000000   0.000000
     8  H   -0.000003  -0.000013  -0.000004  -0.000000  -0.000000  -0.000000
     9  H   -0.000554  -0.000338   0.001490  -0.000000  -0.000310   0.000000
    10  H   -0.000001  -0.000150   0.000068  -0.000000   0.000002  -0.000000
    11  H    0.000006  -0.001367   0.001030   0.000000   0.000010   0.000000
    12  C   -1.170072   0.255457   0.118043   0.000322   0.064567   0.000022
    13  C    0.483148  -0.209263  -0.070077  -0.000544  -0.206948  -0.000022
    14  O    0.878843  -0.104740   0.574335  -0.000004   0.100963   0.000000
    15  H    0.002872  -0.001933   0.003450   0.000000   0.002772   0.000000
    16  S    0.008767   0.034737   0.208179   0.001545   0.518390   0.000114
    17  H    0.294730  -0.005166   0.040700  -0.006855  -0.055805   0.000009
    18  P    0.443575  -0.073830  -3.812187   0.000018  -1.406802  -0.000475
    19  C   19.537042   0.016017  -2.681731   0.050062  -3.075925   0.012745
    20  S    0.016017  16.728955  -0.833967   0.000086   0.299333   0.000019
    21  C   -2.681731  -0.833967  21.739125   0.034528  -0.893919   0.000649
    22  H    0.050062   0.000086   0.034528   0.579350   0.226574  -0.000852
    23  C   -3.075925   0.299333  -0.893919   0.226574  15.302559   0.116574
    24  H    0.012745   0.000019   0.000649  -0.000852   0.116574   0.582312
    25  C   -7.409311  -0.068157  -6.512249   0.007105  -3.764684   0.006693
    26  C    0.293770  -0.043493  -3.677692  -0.023913  -0.831388  -0.087317
    27  H    0.061991  -0.001810   0.068542   0.000014  -0.030042  -0.000000
    28  C   -1.410799   0.177957   1.210108   0.011181  -1.133371  -0.080450
    29  C    0.031668  -0.000012   0.012254   0.006924  -0.003778   0.421652
    30  O   -0.021951   0.000407  -0.042740  -0.008776   0.134480  -0.038301
    31  H    0.014833  -0.000012   0.013417  -0.000691   0.014845  -0.041845
    32  H   -0.012853  -0.000001  -0.000822   0.000078  -0.071229  -0.033002
    33  H   -0.010255   0.000057   0.029840  -0.000150   0.040231   0.000004
    34  H    0.035436  -0.002842   0.061711  -0.000002  -0.001224   0.000000
    35  H    0.007747   0.001078  -0.010583   0.000000   0.001176  -0.000000
              25         26         27         28         29         30
     1  C    0.002390  -0.000084  -0.000002   0.000137  -0.000001   0.000000
     2  C    0.102070  -0.000641  -0.000081  -0.003182   0.000093   0.000006
     3  C    0.515187  -0.002729  -0.001982   0.014603   0.000801   0.000145
     4  C   -0.902738   0.032446   0.008740  -0.030161  -0.000667  -0.000425
     5  C   -0.317121  -0.012504   0.001769   0.000871  -0.000267  -0.000044
     6  C   -0.051305  -0.000677  -0.000042   0.004683   0.000002  -0.000001
     7  H   -0.000000  -0.000000   0.000000   0.000000   0.000000   0.000000
     8  H    0.000023   0.000000  -0.000000   0.000001   0.000000  -0.000000
     9  H    0.001076   0.000033  -0.000000   0.000037  -0.000000  -0.000000
    10  H    0.000005   0.000000  -0.000000  -0.000001   0.000000  -0.000000
    11  H   -0.000412   0.000008   0.000000  -0.000448   0.000000   0.000000
    12  C    1.070562  -0.057191   0.001973   0.073390   0.003055   0.000991
    13  C   -0.264728   0.028518  -0.008379  -0.042774  -0.002048  -0.000720
    14  O   -1.502939  -0.065738  -0.000028   0.009288  -0.000353  -0.000004
    15  H   -0.008993  -0.000635   0.000055   0.001210  -0.000006  -0.000000
    16  S   -0.517439  -0.069845   0.002299   0.009359  -0.000308  -0.001871
    17  H    0.025963  -0.001414  -0.000160  -0.006605  -0.000707  -0.000742
    18  P    2.389697   0.308228   0.027333  -0.247938  -0.010527   0.004363
    19  C   -7.409311   0.293770   0.061991  -1.410799   0.031668  -0.021951
    20  S   -0.068157  -0.043493  -0.001810   0.177957  -0.000012   0.000407
    21  C   -6.512249  -3.677692   0.068542   1.210108   0.012254  -0.042740
    22  H    0.007105  -0.023913   0.000014   0.011181   0.006924  -0.008776
    23  C   -3.764684  -0.831388  -0.030042  -1.133371  -0.003778   0.134480
    24  H    0.006693  -0.087317  -0.000000  -0.080450   0.421652  -0.038301
    25  C   25.338344   2.776709   0.305330  -5.119738   0.048617  -0.045148
    26  C    2.776709   9.790536  -0.012750  -2.407539  -0.142074   0.505241
    27  H    0.305330  -0.012750   0.559208  -0.117762   0.000050  -0.000612
    28  C   -5.119738  -2.407539  -0.117762  14.986370  -0.105724  -0.505530
    29  C    0.048617  -0.142074   0.000050  -0.105724   5.046467   0.065920
    30  O   -0.045148   0.505241  -0.000612  -0.505530   0.065920   8.413637
    31  H   -0.013119  -0.074981   0.000001   0.053501   0.394423  -0.045669
    32  H    0.000760   0.057798  -0.000000   0.043046   0.404762  -0.057073
    33  H   -0.045602   0.039874  -0.005789   0.265470  -0.000481  -0.009336
    34  H   -0.040580   0.001948   0.000014  -0.016343   0.000051  -0.000025
    35  H   -0.005167  -0.000177   0.000000  -0.000410  -0.000005   0.000000
              31         32         33         34         35
     1  C    0.000000   0.000000   0.000000   0.000083   0.000887
     2  C   -0.000000  -0.000000  -0.000002  -0.009545   0.031770
     3  C   -0.000014  -0.000000  -0.000033  -0.031770   0.100276
     4  C    0.000029  -0.000000   0.000310   0.101710  -0.012624
     5  C    0.000002  -0.000000   0.000023   0.008636  -0.070029
     6  C   -0.000000  -0.000000   0.000002   0.000257   0.000129
     7  H   -0.000000   0.000000  -0.000000  -0.000000   0.000000
     8  H    0.000000   0.000000  -0.000000  -0.000000   0.000000
     9  H   -0.000000  -0.000000  -0.000000   0.000187  -0.000666
    10  H   -0.000000  -0.000000  -0.000000  -0.000000  -0.000004
    11  H   -0.000000  -0.000000  -0.000000  -0.000003  -0.000001
    12  C   -0.000156  -0.000008  -0.000920  -0.198003  -0.097514
    13  C    0.000129   0.000007   0.000524   0.447485   0.386003
    14  O    0.000001  -0.000000   0.000249   0.010391   0.002200
    15  H    0.000000  -0.000000   0.000000  -0.005686  -0.000626
    16  S    0.000427  -0.000050  -0.000023   0.022294  -0.036578
    17  H    0.000000  -0.000000   0.000012   0.000048   0.000001
    18  P   -0.001226   0.000187   0.000051  -0.103240   0.020934
    19  C    0.014833  -0.012853  -0.010255   0.035436   0.007747
    20  S   -0.000012  -0.000001   0.000057  -0.002842   0.001078
    21  C    0.013417  -0.000822   0.029840   0.061711  -0.010583
    22  H   -0.000691   0.000078  -0.000150  -0.000002   0.000000
    23  C    0.014845  -0.071229   0.040231  -0.001224   0.001176
    24  H   -0.041845  -0.033002   0.000004   0.000000  -0.000000
    25  C   -0.013119   0.000760  -0.045602  -0.040580  -0.005167
    26  C   -0.074981   0.057798   0.039874   0.001948  -0.000177
    27  H    0.000001  -0.000000  -0.005789   0.000014   0.000000
    28  C    0.053501   0.043046   0.265470  -0.016343  -0.000410
    29  C    0.394423   0.404762  -0.000481   0.000051  -0.000005
    30  O   -0.045669  -0.057073  -0.009336  -0.000025   0.000000
    31  H    0.564723  -0.028755  -0.000003  -0.000003   0.000000
    32  H   -0.028755   0.543466  -0.000017  -0.000000   0.000000
    33  H   -0.000003  -0.000017   0.557572  -0.000004   0.000000
    34  H   -0.000003  -0.000000  -0.000004   0.532973  -0.024441
    35  H    0.000000   0.000000   0.000000  -0.024441   0.503701
 Mulliken charges:
               1
     1  C    0.038070
     2  C   -0.416915
     3  C   -0.149730
     4  C   -0.666175
     5  C    0.412185
     6  C   -0.080104
     7  H    0.125719
     8  H    0.127912
     9  H    0.118403
    10  H    0.128028
    11  H    0.124466
    12  C    0.433914
    13  C   -0.604778
    14  O   -0.239484
    15  H    0.150419
    16  S    0.057933
    17  H    0.133160
    18  P   -0.203919
    19  C   -0.797610
    20  S   -0.072766
    21  C   -0.016107
    22  H    0.124064
    23  C    0.605937
    24  H    0.141471
    25  C   -0.001100
    26  C   -0.322326
    27  H    0.142120
    28  C    0.367563
    29  C   -0.169782
    30  O   -0.346219
    31  H    0.150142
    32  H    0.153707
    33  H    0.138392
    34  H    0.210488
    35  H    0.202923
 Sum of Mulliken charges =  -0.00000
 Mulliken charges with hydrogens summed into heavy atoms:
               1
     1  C    0.163789
     2  C   -0.288887
     3  C   -0.031327
     4  C   -0.666175
     5  C    0.536651
     6  C    0.047807
    12  C    0.584333
    13  C   -0.191367
    14  O   -0.239484
    16  S    0.057933
    18  P   -0.203919
    19  C   -0.664450
    20  S   -0.072766
    21  C   -0.016107
    23  C    0.730002
    25  C    0.141020
    26  C   -0.322326
    28  C    0.505955
    29  C    0.275538
    30  O   -0.346219
 Electronic spatial extent (au):  <R**2>=           8579.5714
 Charge=             -0.0000 electrons
 Dipole moment (field-independent basis, Debye):
    X=             -1.4791    Y=             -6.0997    Z=             -0.4682  Tot=              6.2939
 Quadrupole moment (field-independent basis, Debye-Ang):
   XX=           -121.8263   YY=           -148.3408   ZZ=           -134.0904
   XY=              2.8546   XZ=              7.9255   YZ=              2.2098
 Traceless Quadrupole moment (field-independent basis, Debye-Ang):
   XX=             12.9262   YY=            -13.5883   ZZ=              0.6621
   XY=              2.8546   XZ=              7.9255   YZ=              2.2098
 Octapole moment (field-independent basis, Debye-Ang**2):
  XXX=             -7.6650  YYY=            -45.2123  ZZZ=             15.0257  XYY=            -35.0901
  XXY=            -51.7666  XXZ=            -43.5306  XZZ=             -3.2933  YZZ=             -5.1778
  YYZ=             -2.3098  XYZ=             -0.4687
 Hexadecapole moment (field-independent basis, Debye-Ang**3):
 XXXX=          -8523.4620 YYYY=          -1474.8397 ZZZZ=           -995.9227 XXXY=            331.3027
 XXXZ=            283.8500 YYYX=            104.3138 YYYZ=             18.6050 ZZZX=             -3.8279
 ZZZY=              2.5604 XXYY=          -1824.5545 XXZZ=          -1633.4799 YYZZ=           -423.2337
 XXYZ=             57.5893 YYXZ=             -3.1600 ZZXY=            -12.7205
 N-N= 1.935615024264D+03 E-N=-8.271763357439D+03  KE= 1.858053705600D+03
 Calling FoFJK, ICntrl=      2127 FMM=F ISym2X=0 I1Cent= 0 IOpClX= 0 NMat=1 NMatS=1 NMatT=0.
 ***** Axes restored to original set *****
 -------------------------------------------------------------------
 Center     Atomic                   Forces (Hartrees/Bohr)
 Number     Number              X              Y              Z
 -------------------------------------------------------------------
      1        6          -0.004362321    0.000998479   -0.005194526
      2        6           0.001717290   -0.000757029    0.003411013
      3        6          -0.001413608   -0.002237155    0.004511460
      4        6          -0.007603852    0.001842561    0.002364106
      5        6          -0.001343343   -0.001653983   -0.002726893
      6        6           0.005305234    0.001060694   -0.001450246
      7        1           0.000730033    0.000200259   -0.001106777
      8        1           0.001702202    0.000380631    0.000622593
      9        1           0.005056917    0.001641786   -0.001115178
     10        1           0.001236189   -0.000070789   -0.000096765
     11        1           0.000354124    0.000225160    0.001847533
     12        6          -0.005760169   -0.022394060   -0.008148102
     13        6           0.010937103    0.005845814   -0.003960199
     14        8          -0.003989016   -0.008887071    0.005408454
     15        1           0.002786849    0.003749076   -0.000514441
     16       16          -0.016494605    0.000730708    0.006145170
     17        1           0.002626095   -0.001529695   -0.002151472
     18       15           0.003042022    0.018508686   -0.004399767
     19        6          -0.003476450   -0.001758039   -0.000303535
     20       16          -0.000000841    0.000389566    0.005946800
     21        6           0.006845575    0.002797172    0.007595906
     22        1           0.001408755   -0.000156025   -0.000554410
     23        6          -0.009009732    0.004716851    0.004656816
     24        1          -0.002089250   -0.000746803    0.000838446
     25        6           0.006588224   -0.002049859    0.002442813
     26        6           0.008725029    0.000663121   -0.007998185
     27        1          -0.000388182   -0.001006792    0.001584538
     28        6          -0.001524026    0.000948472   -0.011301192
     29        6           0.006698390   -0.002217708    0.006758693
     30        8          -0.004000343   -0.005217816    0.002200623
     31        1          -0.001346108    0.003043093   -0.000672663
     32        1           0.001718473    0.003171744   -0.003510754
     33        1          -0.001536385   -0.000608703    0.002010055
     34        1          -0.000979258   -0.003075675   -0.002193068
     35        1          -0.002161015    0.003453326   -0.000946844
 -------------------------------------------------------------------
 Cartesian Forces:  Max     0.022394060 RMS     0.005067709

 GradGradGradGradGradGradGradGradGradGradGradGradGradGradGradGradGradGrad
 Berny optimization.
 FormGI is forming the generalized inverse of G from B-inverse, IUseBI=4.
 Internal  Forces:  Max     0.020851931 RMS     0.004510498
 Search for a local minimum.
 Step number   1 out of a maximum of  196
 All quantities printed in internal units (Hartrees-Bohrs-Radians)
 Mixed Optimization -- RFO/linear search
 Second derivative matrix not updated -- first step.
 ITU=  0
     Eigenvalues ---    0.00374   0.00624   0.01038   0.01305   0.01344
     Eigenvalues ---    0.01582   0.01655   0.02018   0.02048   0.02048
     Eigenvalues ---    0.02059   0.02070   0.02093   0.02100   0.02101
     Eigenvalues ---    0.02105   0.02108   0.02123   0.02164   0.02188
     Eigenvalues ---    0.02194   0.02200   0.02205   0.02228   0.04202
     Eigenvalues ---    0.04872   0.05040   0.06269   0.07785   0.08370
     Eigenvalues ---    0.09747   0.09924   0.10455   0.10893   0.11894
     Eigenvalues ---    0.14141   0.15965   0.15980   0.15992   0.15994
     Eigenvalues ---    0.15997   0.15997   0.15999   0.16000   0.16000
     Eigenvalues ---    0.16000   0.16000   0.16000   0.16180   0.17925
     Eigenvalues ---    0.19463   0.20829   0.21960   0.21998   0.22000
     Eigenvalues ---    0.22858   0.23095   0.23434   0.23894   0.23980
     Eigenvalues ---    0.24911   0.24922   0.24998   0.25000   0.25377
     Eigenvalues ---    0.27156   0.29459   0.33857   0.34005   0.34198
     Eigenvalues ---    0.34254   0.34357   0.34532   0.34852   0.35006
     Eigenvalues ---    0.35018   0.35081   0.35100   0.35149   0.35205
     Eigenvalues ---    0.35354   0.35436   0.37602   0.41100   0.41181
     Eigenvalues ---    0.41242   0.41775   0.41893   0.41939   0.42025
     Eigenvalues ---    0.44814   0.44899   0.45683   0.45840   0.46181
     Eigenvalues ---    0.46348   0.46925   0.47333   0.51258
 RFO step:  Lambda=-2.07325182D-02 EMin= 3.74263992D-03
 Linear search not attempted -- first point.
 Iteration  1 RMS(Cart)=  0.28152282 RMS(Int)=  0.01189077
 Iteration  2 RMS(Cart)=  0.06284790 RMS(Int)=  0.00070233
 Iteration  3 RMS(Cart)=  0.00157389 RMS(Int)=  0.00049470
 Iteration  4 RMS(Cart)=  0.00000103 RMS(Int)=  0.00049470
 Iteration  5 RMS(Cart)=  0.00000000 RMS(Int)=  0.00049470
 Variable       Old X    -DE/DX   Delta X   Delta X   Delta X     New X
                                 (Linear)    (Quad)   (Total)
    R1        2.62075   0.00897   0.00000   0.01899   0.01896   2.63971
    R2        2.63216   0.00284   0.00000   0.00630   0.00627   2.63843
    R3        2.05343  -0.00009   0.00000  -0.00023  -0.00023   2.05320
    R4        2.63825   0.00189   0.00000   0.00446   0.00446   2.64271
    R5        2.05513  -0.00111   0.00000  -0.00300  -0.00300   2.05214
    R6        2.66121  -0.00522   0.00000  -0.01177  -0.01174   2.64947
    R7        2.05103  -0.00151   0.00000  -0.00404  -0.00404   2.04700
    R8        2.65386  -0.00104   0.00000  -0.00330  -0.00327   2.65059
    R9        2.89054  -0.00160   0.00000  -0.00507  -0.00507   2.88547
   R10        2.64913  -0.00549   0.00000  -0.01216  -0.01216   2.63697
   R11        2.05646  -0.00066   0.00000  -0.00178  -0.00178   2.05468
   R12        2.05434  -0.00063   0.00000  -0.00169  -0.00169   2.05265
   R13        2.91861  -0.00569   0.00000  -0.01270  -0.01259   2.90602
   R14        2.73215   0.00093   0.00000   0.00618   0.00646   2.73861
   R15        2.07571  -0.00091   0.00000  -0.00252  -0.00252   2.07319
   R16        3.45708   0.01015   0.00000   0.03373   0.03416   3.49124
   R17        2.06997  -0.00071   0.00000  -0.00196  -0.00196   2.06801
   R18        2.06441  -0.00140   0.00000  -0.00383  -0.00383   2.06058
   R19        3.10650   0.00992   0.00000   0.02274   0.02250   3.12900
   R20        4.00906   0.01144   0.00000   0.03814   0.03769   4.04675
   R21        2.05916  -0.00366   0.00000  -0.00991  -0.00991   2.04925
   R22        3.67359  -0.00113   0.00000  -0.00257  -0.00257   3.67102
   R23        3.41959   0.01054   0.00000   0.03839   0.03839   3.45797
   R24        2.66155  -0.00239   0.00000  -0.00540  -0.00535   2.65620
   R25        2.63133   0.00161   0.00000   0.00399   0.00399   2.63532
   R26        2.64518   0.00415   0.00000   0.00772   0.00776   2.65294
   R27        2.04973  -0.00064   0.00000  -0.00172  -0.00172   2.04801
   R28        2.62725   0.01119   0.00000   0.02362   0.02357   2.65082
   R29        2.06904   0.00066   0.00000   0.00180   0.00180   2.07085
   R30        2.05544  -0.00160   0.00000  -0.00432  -0.00432   2.05112
   R31        2.65119  -0.00747   0.00000  -0.01655  -0.01655   2.63464
   R32        2.64000   0.00162   0.00000   0.00361   0.00357   2.64357
   R33        2.58617   0.00413   0.00000   0.00775   0.00775   2.59391
   R34        2.05665  -0.00209   0.00000  -0.00563  -0.00563   2.05102
   R35        2.70086   0.00006   0.00000   0.00013   0.00013   2.70099
   R36        2.07322  -0.00089   0.00000  -0.00247  -0.00247   2.07075
   R37        2.06732  -0.00113   0.00000  -0.00309  -0.00309   2.06423
    A1        2.08624  -0.00157   0.00000  -0.00305  -0.00310   2.08313
    A2        2.09188   0.00215   0.00000   0.00905   0.00908   2.10097
    A3        2.10506  -0.00057   0.00000  -0.00601  -0.00598   2.09909
    A4        2.09273   0.00117   0.00000   0.00850   0.00845   2.10118
    A5        2.10147  -0.00002   0.00000  -0.00107  -0.00110   2.10037
    A6        2.08892  -0.00114   0.00000  -0.00726  -0.00729   2.08163
    A7        2.12733  -0.00465   0.00000  -0.01885  -0.01889   2.10844
    A8        2.02248   0.00744   0.00000   0.03789   0.03778   2.06027
    A9        2.13319  -0.00277   0.00000  -0.01861  -0.01872   2.11447
   A10        2.04536   0.00493   0.00000   0.01602   0.01605   2.06142
   A11        2.14797   0.00619   0.00000   0.02461   0.02453   2.17250
   A12        2.08740  -0.01107   0.00000  -0.03930  -0.03943   2.04797
   A13        2.11104   0.00222   0.00000   0.00628   0.00623   2.11727
   A14        2.10115  -0.00291   0.00000  -0.01289  -0.01301   2.08814
   A15        2.07067   0.00072   0.00000   0.00723   0.00711   2.07777
   A16        2.10332  -0.00207   0.00000  -0.00838  -0.00841   2.09491
   A17        2.08389   0.00279   0.00000   0.01390   0.01391   2.09780
   A18        2.09595  -0.00072   0.00000  -0.00550  -0.00549   2.09046
   A19        2.01445   0.00901   0.00000   0.04498   0.04418   2.05863
   A20        1.97602  -0.00436   0.00000  -0.02912  -0.02790   1.94812
   A21        1.84612  -0.00269   0.00000   0.00323   0.00167   1.84780
   A22        1.91926  -0.00685   0.00000  -0.03634  -0.03653   1.88273
   A23        1.85142   0.00279   0.00000   0.02789   0.02732   1.87874
   A24        1.84211   0.00240   0.00000  -0.00878  -0.00872   1.83338
   A25        1.85486   0.00577   0.00000   0.03651   0.03632   1.89118
   A26        1.90712  -0.00035   0.00000  -0.00585  -0.00695   1.90017
   A27        1.98378  -0.00406   0.00000  -0.02353  -0.02278   1.96101
   A28        1.86330  -0.00094   0.00000   0.01334   0.01367   1.87696
   A29        1.95370  -0.00149   0.00000  -0.01895  -0.01910   1.93460
   A30        1.89692   0.00125   0.00000   0.00106   0.00091   1.89783
   A31        2.00292   0.01168   0.00000   0.06815   0.06716   2.07009
   A32        1.56250  -0.00085   0.00000  -0.00042  -0.00088   1.56162
   A33        1.73042  -0.00854   0.00000  -0.03650  -0.03562   1.69480
   A34        1.95229   0.01059   0.00000   0.03969   0.03855   1.99084
   A35        1.82461  -0.00865   0.00000  -0.04992  -0.04866   1.77595
   A36        2.09992  -0.00623   0.00000  -0.03532  -0.03522   2.06470
   A37        1.73303   0.02085   0.00000   0.11441   0.11492   1.84795
   A38        2.07390  -0.00859   0.00000  -0.03453  -0.03482   2.03907
[...]
 .00000590,-0.00000826,0.00000777,-0.00001819,-0.00003484,-0.00000039,-
 0.00002418,-0.00002048,-0.00001791,-0.00003661,0.00006946,-0.00002545,
 0.00005218,-0.00002008,0.00001662,0.00001243,0.00001885,0.00000416,0.0
 0003273,0.00048762,0.00061664,0.00054081,-0.00011964,-0.00015668,0.000
 09276,-0.00107266,-0.00045751,-0.00103557,0.00002441,0.00000101,-0.000
 01061,-0.00112859,-0.00052029,-0.00030334,0.00082489,0.00011619,0.0004
 2437,0.00539631,-0.00028772,0.00186491,-0.00029040,-0.00390883,-0.0057
 5358,-0.00150667,0.00075119,0.00027133,-0.00589890,0.00284661,0.002484
 72,-0.00169132,0.00123110,-0.00002830,0.01452741,-0.00150662,0.0148031
 8,-0.00521076,-0.01279469,-0.02192215,0.00790348,-0.00504431,-0.005444
 80,-0.06630218,-0.00864587,-0.11507620,-0.00162616,0.00000788,-0.00062
 340,-0.05854229,0.00364708,-0.02149237,-0.00714873,-0.04509808,-0.1992
 2995,0.13737251,0.08062439,0.40444493,0.00000225,0.00000080,0.00000139
 ,-0.00000262,0.00000264,0.00000145,0.00000337,-0.00000117,0.00000061,-
 0.00000608,0.00000662,0.00000177,0.00000755,-0.00000362,-0.00000094,0.
 00000055,-0.00000035,0.00000159,0.00000207,-0.00000016,0.00000169,0.00
 000122,0.00000084,0.00000261,-0.00000452,0.00000151,-0.00000305,0.0000
 0089,-0.00000117,-0.00000065,-0.00000147,-0.00000040,-0.00000158,-0.00
 002661,-0.00003284,-0.00003995,0.00001274,0.00000408,-0.00001426,0.000
 05109,0.00002806,0.00007394,-0.00000037,-0.00000074,0.00000346,0.00010
 609,0.00004673,0.00002244,0.00002584,0.00004104,-0.00001915,-0.0003282
 3,0.00010112,-0.00011917,-0.00075595,-0.00058857,-0.00055170,0.0000641
 2,-0.00003156,-0.00000127,0.00005646,0.00019990,0.00076627,-0.00095849
 ,0.00114652,-0.00107715,0.00045882,0.00041722,0.00097262,0.00333749,0.
 00459629,-0.00405868,0.00065468,-0.00030852,-0.00008408,0.00246744,0.0
 0117788,-0.00061508,0.00002152,0.00004000,-0.00000349,-0.00054084,-0.0
 0051314,-0.00040645,-0.12178900,-0.07645818,0.08668739,0.00723126,0.00
 727730,-0.00948304,0.12302111,-0.00000113,0.00000026,-0.00000134,0.000
 00146,-0.00000143,-0.00000134,-0.00000107,0.00000254,-0.00000098,0.000
 00378,-0.00000546,-0.00000228,-0.00000514,0.00000313,0.00000039,-0.000
 00037,0.00000008,-0.00000172,-0.00000118,-0.00000031,-0.00000048,-0.00
 000099,-0.00000089,-0.00000108,0.00000225,-0.00000132,0.00000312,-0.00
 000064,-0.00000006,0.00000089,0.00000069,-0.00000076,0.00000101,0.0000
 1326,0.00002430,0.00001518,-0.00000716,0.00000120,0.00000207,-0.000034
 55,-0.00002440,-0.00006803,0.00000022,-0.00000199,-0.00000297,0.000000
 39,-0.00001009,-0.00000284,0.00002175,-0.00000135,0.00001862,0.0000604
 7,0.00002199,0.00002162,0.00002257,-0.00015390,-0.00039443,-0.00002450
 ,0.00001417,-0.00001740,-0.00005927,-0.00001769,-0.00000910,0.00038052
 ,-0.00041848,-0.00028887,-0.00036190,0.00032291,0.00107030,-0.01689711
 ,-0.01569919,0.01995607,-0.00008582,-0.00011102,-0.00003440,0.00009611
 ,0.00066966,0.00010269,0.00000796,0.00002040,-0.00001481,0.00011160,-0
 .00033036,0.00003100,-0.07550065,-0.13600033,0.09478909,0.00680817,0.0
 0963191,-0.00939340,0.08144592,0.13725742,-0.00000416,-0.00000024,-0.0
 0000345,0.00000460,-0.00000508,-0.00000254,-0.00000313,0.00000667,-0.0
 0000363,0.00000460,-0.00001969,0.00000108,-0.00001174,0.00000687,0.000
 00032,-0.00000157,-0.00000063,-0.00000153,-0.00000358,0.00000007,-0.00
 000279,-0.00000198,-0.00000168,-0.00000411,0.00000758,-0.00000169,0.00
 000630,-0.00000168,0.00000196,0.00000130,0.00000225,0.00000076,0.00000
 293,0.00005225,0.00007344,0.00005298,-0.00001811,-0.00001841,0.0000130
 4,-0.00010713,-0.00007459,-0.00012232,0.00000115,-0.00000088,-0.000003
 50,-0.00013891,-0.00007872,-0.00003327,-0.00006244,0.00000844,-0.00001
 553,0.00066390,0.00004434,0.00024843,-0.00026675,-0.00006776,0.0001024
 7,-0.00018328,0.00006963,0.00002712,-0.00077851,0.00034677,0.00020150,
 -0.00049640,0.00072972,0.00015054,-0.00076355,-0.00003320,0.00042391,-
 0.00166451,-0.00154275,0.00565534,0.00084830,-0.00046585,0.00016906,0.
 00806690,0.00004772,0.00231035,-0.00001802,0.00004784,-0.00005049,-0.0
 0154919,-0.00068567,-0.00125807,0.08196274,0.09164893,-0.15094565,0.00
 615403,0.01106084,-0.04060244,-0.09167498,-0.10032455,0.18010689,-0.00
 000396,-0.00000040,-0.00000345,0.00000434,-0.00000440,-0.00000284,-0.0
 0000428,0.00000515,-0.00000293,0.00000771,-0.00001510,-0.00000147,-0.0
 0001160,0.00000745,-0.00000008,-0.00000106,0.00000035,-0.00000219,-0.0
 0000364,-0.00000012,-0.00000244,-0.00000230,-0.00000198,-0.00000388,0.
 00000747,-0.00000243,0.00000612,-0.00000180,0.00000154,0.00000153,0.00
 000210,-0.00000002,0.00000324,0.00004441,0.00006098,0.00005675,-0.0000
 1556,-0.00001060,0.00001134,-0.00009801,-0.00005640,-0.00013051,0.0000
 0116,-0.00000044,-0.00000437,-0.00008447,-0.00004608,-0.00002474,-0.00
 000374,0.00000561,-0.00000112,0.00040566,-0.00001270,0.00015202,0.0001
 2458,0.00002131,0.00000014,-0.00011351,0.00004777,-0.00000334,-0.00021
 352,-0.00000140,-0.00013278,0.00001273,-0.00018406,-0.00024355,-0.0000
 4153,0.00014360,0.00020372,-0.00256456,0.00049828,0.00097040,0.0000131
 3,-0.00006642,-0.00017486,0.00256222,-0.00062034,-0.00047985,-0.000036
 41,-0.00000699,-0.00001533,-0.00048784,0.00012904,-0.00006388,-0.31471
 123,0.05366270,-0.01334829,-0.00912665,-0.00014377,-0.00686587,-0.0131
 0801,0.00400626,-0.00009399,0.33744400,0.00000049,0.00000008,0.0000003
 5,-0.00000045,0.00000042,0.00000051,0.00000009,-0.00000085,0.00000012,
 -0.00000067,0.00000222,0.00000024,0.00000143,0.00000040,-0.00000013,-0
 .00000042,-0.00000095,0.00000097,0.00000057,0.00000020,0.00000023,0.00
 000026,0.00000041,0.00000018,-0.00000087,0.00000033,-0.00000103,0.0000
 0039,-0.00000012,-0.00000039,0.00000014,0.00000020,-0.00000075,-0.0000
 0202,-0.00000738,-0.00000383,-0.00000111,0.00000106,0.00000129,0.00000
 596,0.00001356,0.00002144,0.00000065,0.00000111,0.00000114,-0.00000393
 ,-0.00000030,0.,-0.00001080,0.00002881,-0.00002044,-0.00001112,-0.0000
 1880,-0.00000115,-0.00006765,0.00024605,0.00005621,0.00000512,-0.00000
 074,0.00000425,-0.00000646,-0.00004551,0.00009300,-0.00006056,-0.00030
 319,0.00044045,0.00026403,0.00011121,-0.00045657,0.03067372,-0.0038450
 0,0.00138899,0.00011403,-0.00006933,-0.00011048,-0.00021792,0.00001844
 ,-0.00166931,-0.00004402,-0.00003486,0.00000080,-0.00045787,0.00030313
 ,-0.00014428,0.05788140,-0.06289361,0.00506353,-0.01200245,0.00189931,
 -0.00372970,-0.01864998,0.00476588,-0.00105469,-0.05742874,0.05981310,
 -0.00000159,0.00000011,-0.00000167,0.00000192,-0.00000178,-0.00000073,
 -0.00000145,0.00000291,-0.00000270,0.00000176,-0.00000648,0.00000185,-
 0.00000380,0.00000402,-0.00000059,-0.00000051,0.00000004,-0.00000091,-
 0.00000125,-0.00000014,-0.00000072,-0.00000103,-0.00000075,-0.00000132
 ,0.00000235,-0.00000121,0.00000225,-0.00000088,0.00000042,0.00000050,0
 .00000071,-0.00000031,0.00000141,0.00002123,0.00002495,0.00002456,-0.0
 0000437,-0.00000794,0.00000364,-0.00005064,-0.00001152,-0.00003230,0.0
 0000224,0.00000033,0.00000083,-0.00004891,-0.00002189,-0.00001367,-0.0
 0006212,-0.00000492,-0.00002738,0.00024045,-0.00001023,0.00009119,-0.0
 0026525,0.00012570,0.00037866,-0.00006612,0.00003359,0.00001282,-0.000
 11326,0.00009808,0.00010314,0.00013806,0.00036130,0.00070196,0.0005509
 3,-0.00054442,-0.00092744,0.00392721,0.00072582,0.00155745,0.00036535,
 -0.00022980,-0.00045062,0.00069283,-0.00194040,-0.00483761,-0.00013208
 ,0.00002212,-0.00004348,-0.00186363,0.00023725,-0.00022793,-0.00060054
 ,0.00224878,-0.04536473,-0.04259087,0.00418075,-0.01533756,0.01958874,
 -0.00539816,0.00344967,0.02023079,0.00012342,0.06095550,-0.00000112,0.
 00000061,-0.00000196,0.00000430,-0.00000940,-0.00000626,0.00000549,0.0
 0001246,0.00001039,0.00000476,-0.00003732,-0.00002405,-0.00001451,0.00
 001469,0.00000106,0.00000007,-0.00000503,-0.00000905,-0.00000186,-0.00
 000137,-0.00000191,-0.00000330,-0.00000162,-0.00000340,0.00000873,0.00
 000181,0.00001653,0.00000199,-0.00000044,0.00000314,0.00000134,-0.0000
 0682,-0.00000157,0.00002874,0.00012621,0.00009661,-0.00011302,0.000003
 82,0.00004181,-0.00001992,-0.00017679,-0.00034790,-0.00000880,-0.00001
 346,-0.00004967,-0.00011450,-0.00014376,-0.00007513,-0.00004646,-0.000
 09140,0.00012960,0.00035123,0.00056947,0.00096809,-0.00002923,-0.00039
 043,-0.00065872,-0.00046030,0.00022267,-0.00004142,-0.00335545,0.00091
 067,-0.00328665,0.00028214,-0.00020067,-0.00039416,0.00047768,0.000375
 75,-0.00172412,-0.00000840,0.00001530,-0.00002318,-0.01632721,0.009478
 22,0.01791846,0.00688910,-0.00206329,-0.00520509,0.00084322,-0.0010847
 1,0.00019516,-0.21217443,0.07549181,0.12253630,0.00011252,-0.00014162,
 0.00002732,0.00063856,-0.00068110,0.00040357,0.00000470,-0.00000307,0.
 00006628,0.00000013,0.00001834,0.00004284,0.22297946,0.00000253,-0.000
 00069,0.00000275,-0.00000093,-0.00000035,0.00000110,0.00000305,-0.0000
 0188,0.00000546,-0.00000703,-0.00000446,-0.00000269,-0.00000019,-0.000
 00433,0.00000597,-0.00000010,-0.00000320,0.00000059,0.00000232,0.00000
 060,0.00000020,0.00000143,0.00000203,0.00000015,-0.00000258,0.00000473
 ,-0.00000263,0.00000295,-0.00000002,-0.00000101,0.00000142,0.00000167,
 -0.00000571,0.00001604,0.00001831,-0.00002198,-0.00001567,0.00001638,0
 .00000743,0.00001819,-0.00002975,0.00004233,-0.00000524,0.00000446,-0.
 00000203,0.00010903,0.00005474,0.00006453,-0.00013141,-0.00061578,0.00
 022552,-0.00007298,0.00057448,-0.00037628,-0.00038846,-0.00076691,0.00
 022257,-0.00018674,-0.00005612,0.00000703,0.00151267,0.00639520,-0.001
 29885,0.00030867,-0.00012009,-0.00012652,-0.00000028,0.00414924,-0.002
 65446,-0.00003571,-0.00001471,-0.00014680,0.00068634,0.00195663,-0.001
 00857,0.00722602,0.00176038,-0.00461614,-0.00099480,-0.00396226,0.0013
 3782,0.07468844,-0.06882258,-0.06232610,-0.00029108,-0.00056854,0.0000
 9125,-0.00034217,-0.00248607,0.00164020,0.00006552,0.00003974,0.000266
 17,-0.00000161,0.00001384,-0.00001788,-0.08216893,0.06246497,0.0000003
 2,-0.00000003,0.00000103,0.00000063,-0.00000082,-0.00000125,0.00000478
 ,0.00000195,0.00000573,0.00000479,0.00000268,-0.00001376,-0.00000105,0
 .00000143,0.00000167,0.00000189,0.00000074,-0.00000376,0.00000073,-0.0
 0000069,0.00000065,-0.00000038,-0.00000034,0.00000117,0.00000021,0.000
 00110,0.00000368,0.00000111,-0.00000102,0.00000083,-0.00000160,-0.0000
 0426,-0.00000030,-0.00004443,-0.00001165,0.00001580,-0.00001275,-0.000
 01442,0.00000064,0.00010744,-0.00001725,-0.00005620,-0.00000427,-0.000
 00749,-0.00002210,-0.00002658,-0.00005499,-0.00005459,0.00010134,0.000
 19924,-0.00001683,-0.00037576,0.00004376,0.00051791,-0.00108851,0.0002
 9416,-0.00069231,-0.00008879,0.00012461,-0.00003067,-0.00317276,-0.001
 28269,0.00089311,0.00120935,-0.00050920,-0.00066408,-0.00279047,-0.002
 37142,-0.00444598,0.00008998,0.00014237,0.00020076,-0.01004839,0.00462
 593,0.01062775,0.02480704,-0.01043161,-0.01221576,0.00070233,0.0014099
 9,0.00047902,0.12071141,-0.06238463,-0.15392089,-0.00033248,0.00020040
 ,-0.00015147,0.00081830,0.00144093,0.00211153,0.00002159,-0.00005094,0
 .00014431,-0.00002592,-0.00000332,-0.00000984,-0.13057511,0.06867337,0
 .15730025,-0.00005523,0.00013076,0.00012056,-0.00013053,-0.00014060,-0
 .00025129,0.00071229,-0.00011499,0.00006791,0.00019554,-0.00035008,-0.
 00051959,-0.00004234,0.00041530,0.00012551,0.00013656,-0.00003342,0.00
 002760,-0.00000466,-0.00000245,0.00000023,-0.00000383,-0.00000443,-0.0
 0000888,0.00000915,-0.00001389,0.00001866,0.00000935,-0.00001693,0.000
 02533,-0.00003698,-0.00007646,0.00000771,0.00309946,-0.00357311,0.0019
 0511,-0.27303948,0.09250122,-0.04354189,0.00045324,0.00073045,-0.00025
 470,0.00118060,0.00005595,-0.00046660,-0.00368004,0.00331335,0.0046455
 9,-0.00000443,0.00002185,-0.00002141,-0.00074841,-0.00090273,0.0007468
 3,-0.00013842,-0.00004547,-0.00026710,0.00014013,0.00022370,-0.0000648
 9,0.00071713,0.00043296,0.00000707,0.00000868,-0.00000470,0.00000743,0
 .00022852,-0.00010820,-0.00004902,-0.00000556,0.00000235,0.00000481,-0
 .00022987,0.00020132,0.00042456,-0.00017132,0.00013071,0.00018262,-0.0
 0010505,-0.00025370,-0.00019149,-0.00012771,-0.00008983,-0.00016704,-0
 .00001517,-0.00001357,-0.00005385,0.00016703,-0.00003338,0.00004471,-0
 .00000867,0.00000233,0.00000840,0.00000592,0.00000067,0.00000194,0.000
 02521,0.00000759,-0.00000414,0.28744636,0.00003833,-0.00000108,0.00014
 747,0.00016568,0.00016601,-0.00023750,0.00039956,0.00003696,0.00035141
 ,-0.00195391,-0.00264255,0.00174762,0.00028484,-0.00011787,-0.00012678
 ,0.00028366,0.00015846,-0.00004282,-0.00001119,-0.00002483,0.00003343,
 0.00004541,0.00001015,0.00003429,-0.00004175,-0.00011489,0.00011403,0.
 00005551,-0.00001701,0.00002290,-0.00013714,-0.00002879,0.00015859,0.0
 2286599,-0.00833954,0.00614393,0.09230441,-0.09172972,0.01911482,-0.00
 113622,0.00092284,-0.00012277,-0.00026545,0.00109029,-0.00035763,0.006
 79806,-0.00266305,-0.00458107,0.00001535,0.00001790,0.00005061,0.00224
 869,-0.00062206,-0.00041047,-0.00013778,-0.00001923,-0.00011459,-0.000
 38667,-0.00026435,-0.00004385,0.00012218,0.00031451,0.00003585,0.00000
 396,0.00000765,0.00001376,0.00013856,-0.00004619,0.00007394,-0.0000071
 9,0.00000912,0.00001635,0.00002641,0.00004639,-0.00049908,-0.00024788,
 0.00001430,-0.00005417,-0.00014947,-0.00030248,0.00035197,-0.00017643,
 0.00015050,0.00015486,-0.00003271,-0.00003073,-0.00013205,0.00026381,-
 0.00000553,0.00018533,-0.00001175,0.00000476,0.00001889,0.00001700,0.0
 0000009,0.00000891,-0.00000562,0.00000343,-0.00001646,-0.10061649,0.09
 341143,-0.00018608,0.00004002,-0.00006986,-0.00023341,-0.00010137,0.00
 021782,-0.00037435,-0.00024823,-0.00067531,0.00145136,0.00384505,-0.00
 127706,-0.00030129,0.00028128,0.00010852,0.00001758,-0.00011326,0.0001
 0642,0.00000196,0.00002850,-0.00003202,-0.00004356,-0.00001030,-0.0000
 4728,0.00006572,0.00015803,-0.00013110,-0.00010085,0.00003117,-0.00003
 701,0.00007763,0.00000515,-0.00009268,-0.01975578,0.00805196,-0.006273
 89,-0.03645040,0.01568460,-0.04505053,0.00003922,0.00009120,0.00153353
 ,-0.00059325,-0.00006096,0.00047523,0.02337096,-0.01388048,-0.00814087
 ,0.00000647,-0.00002705,0.00003275,0.00252644,0.00148546,-0.00166922,-
 0.00007996,-0.00001376,-0.00012743,-0.00049146,-0.00071836,0.00011174,
 -0.00014821,-0.00016123,0.00025610,-0.00000286,-0.00000813,-0.00000447
 ,0.00007399,0.00003657,0.00001079,0.00000077,-0.00000057,-0.00000633,0
 .00008694,0.00005841,0.00013398,0.00001808,0.00003786,0.00013098,-0.00
 001585,-0.00005273,0.00009419,-0.00025386,0.00006709,-0.00019366,0.000
 00627,-0.00000519,0.00003386,-0.00011434,0.00001163,-0.00005339,0.0000
 0295,-0.00000122,-0.00000931,-0.00000265,-0.00000061,-0.00000197,-0.00
 000857,0.00000306,0.00000479,0.04042434,-0.01928805,0.06069872,-0.0000
 9180,0.00013569,0.00010414,-0.00021786,-0.00009222,-0.00016158,0.00047
 238,0.00000272,0.00012800,-0.00004043,0.00083028,-0.00048773,0.0000430
 4,0.00002028,-0.00047513,0.00009734,0.00002252,0.00004787,-0.00000366,
 0.00000745,0.00001023,0.00002307,0.00000749,-0.00000040,0.00002536,0.0
 0005589,0.00001808,0.00001038,-0.00001362,0.00001748,-0.00009688,0.000
 06011,0.00014313,-0.00069525,0.00106569,-0.00071333,-0.15633467,-0.124
 83632,-0.05865532,0.00109923,0.00062757,0.00018741,0.00004768,-0.00000
 843,0.00022152,0.00684045,0.00934090,0.00433261,-0.00001185,0.00000982
 ,-0.00003555,-0.00121186,0.00068952,0.00296765,-0.00001130,-0.00000849
 ,-0.00007175,-0.00007408,0.00098262,-0.00016757,0.00036768,0.00007335,
 -0.00030944,0.00000351,-0.00000335,0.00000091,0.00002554,-0.00005046,-
 0.00005169,0.00000020,0.00000106,0.00000013,-0.00008723,0.00008145,0.0
 0037279,-0.00001103,0.00001552,0.00001188,0.00009776,0.00009406,-0.000
 20514,0.00013276,-0.00011811,-0.00003022,-0.00000203,0.00000374,-0.000
 00230,0.00003402,-0.00000795,-0.00001389,-0.00000035,-0.00000116,0.000
 00062,-0.00000187,-0.00000025,-0.00000107,0.00001913,-0.00000631,0.000
 01018,-0.01598745,-0.02075976,-0.00901392,0.16554006,-0.00021390,0.000
 30542,0.00023399,-0.00034757,-0.00017271,-0.00024747,0.00072954,-0.000
 27437,-0.00016650,-0.00082440,0.00072843,-0.00083976,-0.00002071,0.000
 49894,-0.00016002,0.00055415,0.00001231,0.00020492,-0.00002919,0.00001
 232,0.00001024,0.00000404,-0.00001290,-0.00002570,-0.00008550,0.000056
 97,-0.00003769,-0.00002671,0.00000104,0.00001185,-0.00013728,-0.000029
 68,0.00024577,-0.01207223,-0.01427435,-0.00968994,-0.12353252,-0.18366
 709,-0.06219316,-0.00124954,-0.00532908,0.00072691,-0.00001728,-0.0000
 1070,0.00062188,-0.00271434,-0.00432461,-0.00340226,0.00001243,-0.0000
 1101,0.00002044,0.00012737,-0.00050712,0.00228681,-0.00002977,0.000050
 06,0.00007715,0.00011418,-0.00047254,-0.00033422,-0.00019465,-0.000051
 00,-0.00031274,-0.00001084,0.00000164,-0.00000516,-0.00007471,0.000023
 52,0.00000543,0.00000318,-0.00000129,-0.00000188,0.00003668,0.00001788
 ,-0.00014326,0.00006188,-0.00003723,-0.00003806,0.00003208,-0.00004941
 ,0.00007841,-0.00001952,0.00001792,0.00001684,0.00000833,0.00000553,0.
 00002132,-0.00007003,0.00000864,-0.00002171,0.00000216,-0.00000135,-0.
 00000299,-0.00000301,0.00000079,-0.00000069,-0.00001495,-0.00000309,0.
 00000056,0.00822393,0.01060513,0.00477443,0.13177869,0.19688300,0.0000
 7218,-0.00005038,-0.00004254,0.00007622,0.00005967,0.00000676,0.000004
 75,-0.00002056,-0.00014203,0.00014351,0.00074464,0.00029539,-0.0002095
 2,0.00030216,0.00017129,-0.00017471,-0.00004411,-0.00013067,0.00001425
 ,-0.00002187,0.00000638,-0.00001235,0.00001353,-0.00000417,0.00002897,
 -0.00005674,-0.00001964,-0.00002431,-0.00003021,0.00000944,0.00007341,
 0.00002331,-0.00025242,0.01104466,0.01200484,0.00930991,-0.06293642,-0
 .06610677,-0.07257026,0.00096045,0.00632637,0.00064754,0.00010882,-0.0
 0063694,-0.00036688,-0.00981991,-0.01785603,-0.01039521,0.00002239,0.0
 0000822,0.00003326,0.00222987,0.00086663,-0.00671229,0.00003674,-0.000
 02187,-0.00003878,-0.00003298,-0.00122147,0.00050936,-0.00027205,0.000
 21409,0.00061962,0.00000319,-0.00001066,-0.00000200,0.00005049,0.00002
 526,0.00005108,0.00000150,-0.00000147,-0.00000759,-0.00004074,-0.00012
 360,-0.00013867,0.00008060,0.00001850,0.00012926,-0.00005545,-0.000006
 39,0.00001277,-0.00012394,0.00004591,-0.00004748,0.00001477,0.00000185
 ,0.00004829,-0.00012991,0.00001155,-0.00006344,0.00000414,-0.00000174,
 -0.00000888,-0.00000573,-0.00000044,-0.00000226,-0.00001925,0.00001016
 ,-0.00001081,-0.00293504,-0.00275168,-0.00005604,0.06182141,0.06828625
 ,0.07916171\\-0.00000045,-0.00000192,-0.00000157,0.00000181,0.00000105
 ,0.00000142,-0.00000188,0.00000103,0.00000072,-0.00000081,-0.00000327,
 -0.00000464,0.00000122,0.00000142,0.00000341,-0.00000123,0.00000030,0.
 ,0.00000046,-0.00000049,-0.00000040,0.00000025,-0.00000103,0.00000048,
 0.00000006,-0.00000061,-0.00000126,-0.00000003,-0.00000042,-0.00000048
 ,-0.00000022,-0.00000149,0.00000032,0.00000096,0.00000263,-0.00000239,
 -0.00000014,-0.00000317,0.00000636,-0.00000051,-0.00000298,0.00000426,
 0.00000055,-0.00000079,0.00000114,0.00000093,0.00000326,-0.00000200,0.
 00000052,0.00000107,0.00000011,0.00000057,0.00000050,-0.00000226,-0.00
 000066,-0.00000074,0.00000019,0.00000019,-0.00000131,-0.00000013,-0.00
 000243,0.00000236,-0.00000471,-0.00000091,0.00000151,-0.00000041,0.000
 00172,0.00000140,0.00000049,0.00000069,0.,0.00000023,0.00000248,-0.000
 00059,0.00000352,-0.00000201,-0.00000252,-0.00000138,-0.00000047,0.000
 00006,-0.00000056,-0.00000152,0.00000010,-0.00000095,-0.00000038,0.000
 00057,-0.00000155,0.00000195,0.00000164,0.00000207,-0.00000053,0.00000
 078,0.00000032,0.00000039,0.00000073,0.00000030,0.00000002,0.00000005,
 0.00000024,-0.00000021,0.00000072,-0.00000053,-0.00000041,0.00000018,-
 0.00000038\\\@
 The archive entry for this job was punched.


 IT TAKES GREATER CHARACTER TO CARRY OFF GOOD FORTUNE THAN BAD.
                     FRENCH PROVERB.
 Job cpu time:       0 days  3 hours 29 minutes 21.7 seconds.
 Elapsed time:       0 days  0 hours 13 minutes  8.3 seconds.
 File lengths (MBytes):  RWF=    760 Int=      0 D2E=      0 Chk=     19 Scr=      1
 Normal termination of Gaussian 16 at Fri May  9 14:35:04 2025.
